+ 0.02 0 2 ping 64 ------- 0 0.0 4.0 -1 0
- 0.02 0 2 ping 64 ------- 0 0.0 4.0 -1 0
+ 0.02 1 2 ping 64 ------- 0 1.0 5.0 -1 1
- 0.02 1 2 ping 64 ------- 0 1.0 5.0 -1 1
+ 0.03 0 2 ping 64 ------- 0 0.0 4.0 -1 2
- 0.03 0 2 ping 64 ------- 0 0.0 4.0 -1 2
+ 0.03 1 2 ping 64 ------- 0 1.0 5.0 -1 3
- 0.03 1 2 ping 64 ------- 0 1.0 5.0 -1 3
r 0.030051 1 2 ping 64 ------- 0 1.0 5.0 -1 1
+ 0.030051 2 3 ping 64 ------- 0 1.0 5.0 -1 1
- 0.030051 2 3 ping 64 ------- 0 1.0 5.0 -1 1
r 0.030512 0 2 ping 64 ------- 0 0.0 4.0 -1 0
+ 0.030512 2 3 ping 64 ------- 0 0.0 4.0 -1 0
+ 0.04 0 2 ping 64 ------- 0 0.0 4.0 -1 4
- 0.04 0 2 ping 64 ------- 0 0.0 4.0 -1 4
+ 0.04 1 2 ping 64 ------- 0 1.0 5.0 -1 5
- 0.04 1 2 ping 64 ------- 0 1.0 5.0 -1 5
r 0.040051 1 2 ping 64 ------- 0 1.0 5.0 -1 3
+ 0.040051 2 3 ping 64 ------- 0 1.0 5.0 -1 3
r 0.040512 0 2 ping 64 ------- 0 0.0 4.0 -1 2
+ 0.040512 2 3 ping 64 ------- 0 0.0 4.0 -1 2
+ 0.05 0 2 ping 64 ------- 0 0.0 4.0 -1 6
- 0.05 0 2 ping 64 ------- 0 0.0 4.0 -1 6
+ 0.05 1 2 ping 64 ------- 0 1.0 5.0 -1 7
- 0.05 1 2 ping 64 ------- 0 1.0 5.0 -1 7
r 0.050051 1 2 ping 64 ------- 0 1.0 5.0 -1 5
+ 0.050051 2 3 ping 64 ------- 0 1.0 5.0 -1 5
r 0.050512 0 2 ping 64 ------- 0 0.0 4.0 -1 4
+ 0.050512 2 3 ping 64 ------- 0 0.0 4.0 -1 4
d 0.050512 2 3 ping 64 ------- 0 0.0 4.0 -1 4
+ 0.06 0 2 ping 64 ------- 0 0.0 4.0 -1 8
- 0.06 0 2 ping 64 ------- 0 0.0 4.0 -1 8
+ 0.06 1 2 ping 64 ------- 0 1.0 5.0 -1 9
- 0.06 1 2 ping 64 ------- 0 1.0 5.0 -1 9
r 0.060051 1 2 ping 64 ------- 0 1.0 5.0 -1 7
+ 0.060051 2 3 ping 64 ------- 0 1.0 5.0 -1 7
d 0.060051 2 3 ping 64 ------- 0 1.0 5.0 -1 7
r 0.060512 0 2 ping 64 ------- 0 0.0 4.0 -1 6
+ 0.060512 2 3 ping 64 ------- 0 0.0 4.0 -1 6
d 0.060512 2 3 ping 64 ------- 0 0.0 4.0 -1 6
+ 0.07 0 2 ping 64 ------- 0 0.0 4.0 -1 10
- 0.07 0 2 ping 64 ------- 0 0.0 4.0 -1 10
+ 0.07 1 2 ping 64 ------- 0 1.0 5.0 -1 11
- 0.07 1 2 ping 64 ------- 0 1.0 5.0 -1 11
r 0.070051 1 2 ping 64 ------- 0 1.0 5.0 -1 9
+ 0.070051 2 3 ping 64 ------- 0 1.0 5.0 -1 9
d 0.070051 2 3 ping 64 ------- 0 1.0 5.0 -1 9
r 0.070512 0 2 ping 64 ------- 0 0.0 4.0 -1 8
+ 0.070512 2 3 ping 64 ------- 0 0.0 4.0 -1 8
d 0.070512 2 3 ping 64 ------- 0 0.0 4.0 -1 8
+ 0.08 0 2 ping 64 ------- 0 0.0 4.0 -1 12
- 0.08 0 2 ping 64 ------- 0 0.0 4.0 -1 12
+ 0.08 1 2 ping 64 ------- 0 1.0 5.0 -1 13
- 0.08 1 2 ping 64 ------- 0 1.0 5.0 -1 13
r 0.080051 1 2 ping 64 ------- 0 1.0 5.0 -1 11
+ 0.080051 2 3 ping 64 ------- 0 1.0 5.0 -1 11
d 0.080051 2 3 ping 64 ------- 0 1.0 5.0 -1 11
r 0.080512 0 2 ping 64 ------- 0 0.0 4.0 -1 10
+ 0.080512 2 3 ping 64 ------- 0 0.0 4.0 -1 10
d 0.080512 2 3 ping 64 ------- 0 0.0 4.0 -1 10
- 0.081251 2 3 ping 64 ------- 0 0.0 4.0 -1 0
+ 0.09 0 2 ping 64 ------- 0 0.0 4.0 -1 14
- 0.09 0 2 ping 64 ------- 0 0.0 4.0 -1 14
+ 0.09 1 2 ping 64 ------- 0 1.0 5.0 -1 15
- 0.09 1 2 ping 64 ------- 0 1.0 5.0 -1 15
r 0.090051 1 2 ping 64 ------- 0 1.0 5.0 -1 13
+ 0.090051 2 3 ping 64 ------- 0 1.0 5.0 -1 13
r 0.090512 0 2 ping 64 ------- 0 0.0 4.0 -1 12
+ 0.090512 2 3 ping 64 ------- 0 0.0 4.0 -1 12
d 0.090512 2 3 ping 64 ------- 0 0.0 4.0 -1 12
r 0.091251 2 3 ping 64 ------- 0 1.0 5.0 -1 1
+ 0.091251 3 5 ping 64 ------- 0 1.0 5.0 -1 1
- 0.091251 3 5 ping 64 ------- 0 1.0 5.0 -1 1
+ 0.1 0 2 ping 64 ------- 0 0.0 4.0 -1 16
- 0.1 0 2 ping 64 ------- 0 0.0 4.0 -1 16
+ 0.1 1 2 ping 64 ------- 0 1.0 5.0 -1 17
- 0.1 1 2 ping 64 ------- 0 1.0 5.0 -1 17
r 0.100051 1 2 ping 64 ------- 0 1.0 5.0 -1 15
+ 0.100051 2 3 ping 64 ------- 0 1.0 5.0 -1 15
d 0.100051 2 3 ping 64 ------- 0 1.0 5.0 -1 15
r 0.100512 0 2 ping 64 ------- 0 0.0 4.0 -1 14
+ 0.100512 2 3 ping 64 ------- 0 0.0 4.0 -1 14
d 0.100512 2 3 ping 64 ------- 0 0.0 4.0 -1 14
r 0.101302 3 5 ping 64 ------- 0 1.0 5.0 -1 1
+ 0.101302 5 3 ping 64 ------- 0 5.0 1.0 -1 18
- 0.101302 5 3 ping 64 ------- 0 5.0 1.0 -1 18
+ 0.11 0 2 ping 64 ------- 0 0.0 4.0 -1 19
- 0.11 0 2 ping 64 ------- 0 0.0 4.0 -1 19
+ 0.11 1 2 ping 64 ------- 0 1.0 5.0 -1 20
- 0.11 1 2 ping 64 ------- 0 1.0 5.0 -1 20
r 0.110051 1 2 ping 64 ------- 0 1.0 5.0 -1 17
+ 0.110051 2 3 ping 64 ------- 0 1.0 5.0 -1 17
d 0.110051 2 3 ping 64 ------- 0 1.0 5.0 -1 17
r 0.110512 0 2 ping 64 ------- 0 0.0 4.0 -1 16
+ 0.110512 2 3 ping 64 ------- 0 0.0 4.0 -1 16
d 0.110512 2 3 ping 64 ------- 0 0.0 4.0 -1 16
r 0.111354 5 3 ping 64 ------- 0 5.0 1.0 -1 18
+ 0.111354 3 2 ping 64 ------- 0 5.0 1.0 -1 18
- 0.111354 3 2 ping 64 ------- 0 5.0 1.0 -1 18
+ 0.12 0 2 ping 64 ------- 0 0.0 4.0 -1 21
- 0.12 0 2 ping 64 ------- 0 0.0 4.0 -1 21
+ 0.12 1 2 ping 64 ------- 0 1.0 5.0 -1 22
- 0.12 1 2 ping 64 ------- 0 1.0 5.0 -1 22
r 0.120051 1 2 ping 64 ------- 0 1.0 5.0 -1 20
+ 0.120051 2 3 ping 64 ------- 0 1.0 5.0 -1 20
d 0.120051 2 3 ping 64 ------- 0 1.0 5.0 -1 20
r 0.120512 0 2 ping 64 ------- 0 0.0 4.0 -1 19
+ 0.120512 2 3 ping 64 ------- 0 0.0 4.0 -1 19
d 0.120512 2 3 ping 64 ------- 0 0.0 4.0 -1 19
+ 0.13 0 2 ping 64 ------- 0 0.0 4.0 -1 23
- 0.13 0 2 ping 64 ------- 0 0.0 4.0 -1 23
+ 0.13 1 2 ping 64 ------- 0 1.0 5.0 -1 24
- 0.13 1 2 ping 64 ------- 0 1.0 5.0 -1 24
r 0.130051 1 2 ping 64 ------- 0 1.0 5.0 -1 22
+ 0.130051 2 3 ping 64 ------- 0 1.0 5.0 -1 22
d 0.130051 2 3 ping 64 ------- 0 1.0 5.0 -1 22
r 0.130512 0 2 ping 64 ------- 0 0.0 4.0 -1 21
+ 0.130512 2 3 ping 64 ------- 0 0.0 4.0 -1 21
d 0.130512 2 3 ping 64 ------- 0 0.0 4.0 -1 21
- 0.132451 2 3 ping 64 ------- 0 1.0 5.0 -1 3
+ 0.14 0 2 ping 64 ------- 0 0.0 4.0 -1 25
- 0.14 0 2 ping 64 ------- 0 0.0 4.0 -1 25
+ 0.14 1 2 ping 64 ------- 0 1.0 5.0 -1 26
- 0.14 1 2 ping 64 ------- 0 1.0 5.0 -1 26
r 0.140051 1 2 ping 64 ------- 0 1.0 5.0 -1 24
+ 0.140051 2 3 ping 64 ------- 0 1.0 5.0 -1 24
r 0.140512 0 2 ping 64 ------- 0 0.0 4.0 -1 23
+ 0.140512 2 3 ping 64 ------- 0 0.0 4.0 -1 23
d 0.140512 2 3 ping 64 ------- 0 0.0 4.0 -1 23
r 0.142451 2 3 ping 64 ------- 0 0.0 4.0 -1 0
+ 0.142451 3 4 ping 64 ------- 0 0.0 4.0 -1 0
d 0.142451 3 4 ping 64 ------- 0 0.0 4.0 -1 0
+ 0.15 0 2 ping 64 ------- 0 0.0 4.0 -1 27
- 0.15 0 2 ping 64 ------- 0 0.0 4.0 -1 27
+ 0.15 1 2 ping 64 ------- 0 1.0 5.0 -1 28
- 0.15 1 2 ping 64 ------- 0 1.0 5.0 -1 28
r 0.150051 1 2 ping 64 ------- 0 1.0 5.0 -1 26
+ 0.150051 2 3 ping 64 ------- 0 1.0 5.0 -1 26
d 0.150051 2 3 ping 64 ------- 0 1.0 5.0 -1 26
r 0.150512 0 2 ping 64 ------- 0 0.0 4.0 -1 25
+ 0.150512 2 3 ping 64 ------- 0 0.0 4.0 -1 25
d 0.150512 2 3 ping 64 ------- 0 0.0 4.0 -1 25
+ 0.16 0 2 ping 64 ------- 0 0.0 4.0 -1 29
- 0.16 0 2 ping 64 ------- 0 0.0 4.0 -1 29
+ 0.16 1 2 ping 64 ------- 0 1.0 5.0 -1 30
- 0.16 1 2 ping 64 ------- 0 1.0 5.0 -1 30
r 0.160051 1 2 ping 64 ------- 0 1.0 5.0 -1 28
+ 0.160051 2 3 ping 64 ------- 0 1.0 5.0 -1 28
d 0.160051 2 3 ping 64 ------- 0 1.0 5.0 -1 28
r 0.160512 0 2 ping 64 ------- 0 0.0 4.0 -1 27
+ 0.160512 2 3 ping 64 ------- 0 0.0 4.0 -1 27
d 0.160512 2 3 ping 64 ------- 0 0.0 4.0 -1 27
+ 0.17 0 2 ping 64 ------- 0 0.0 4.0 -1 31
- 0.17 0 2 ping 64 ------- 0 0.0 4.0 -1 31
+ 0.17 1 2 ping 64 ------- 0 1.0 5.0 -1 32
- 0.17 1 2 ping 64 ------- 0 1.0 5.0 -1 32
r 0.170051 1 2 ping 64 ------- 0 1.0 5.0 -1 30
+ 0.170051 2 3 ping 64 ------- 0 1.0 5.0 -1 30
d 0.170051 2 3 ping 64 ------- 0 1.0 5.0 -1 30
r 0.170512 0 2 ping 64 ------- 0 0.0 4.0 -1 29
+ 0.170512 2 3 ping 64 ------- 0 0.0 4.0 -1 29
d 0.170512 2 3 ping 64 ------- 0 0.0 4.0 -1 29
r 0.172554 3 2 ping 64 ------- 0 5.0 1.0 -1 18
+ 0.172554 2 1 ping 64 ------- 0 5.0 1.0 -1 18
- 0.172554 2 1 ping 64 ------- 0 5.0 1.0 -1 18
+ 0.18 0 2 ping 64 ------- 0 0.0 4.0 -1 33
- 0.18 0 2 ping 64 ------- 0 0.0 4.0 -1 33
+ 0.18 1 2 ping 64 ------- 0 1.0 5.0 -1 34
- 0.18 1 2 ping 64 ------- 0 1.0 5.0 -1 34
r 0.180051 1 2 ping 64 ------- 0 1.0 5.0 -1 32
+ 0.180051 2 3 ping 64 ------- 0 1.0 5.0 -1 32
d 0.180051 2 3 ping 64 ------- 0 1.0 5.0 -1 32
r 0.180512 0 2 ping 64 ------- 0 0.0 4.0 -1 31
+ 0.180512 2 3 ping 64 ------- 0 0.0 4.0 -1 31
d 0.180512 2 3 ping 64 ------- 0 0.0 4.0 -1 31
r 0.182605 2 1 ping 64 ------- 0 5.0 1.0 -1 18
- 0.183651 2 3 ping 64 ------- 0 0.0 4.0 -1 2
+ 0.19 0 2 ping 64 ------- 0 0.0 4.0 -1 35
- 0.19 0 2 ping 64 ------- 0 0.0 4.0 -1 35
+ 0.19 1 2 ping 64 ------- 0 1.0 5.0 -1 36
- 0.19 1 2 ping 64 ------- 0 1.0 5.0 -1 36
r 0.190051 1 2 ping 64 ------- 0 1.0 5.0 -1 34
+ 0.190051 2 3 ping 64 ------- 0 1.0 5.0 -1 34
r 0.190512 0 2 ping 64 ------- 0 0.0 4.0 -1 33
+ 0.190512 2 3 ping 64 ------- 0 0.0 4.0 -1 33
d 0.190512 2 3 ping 64 ------- 0 0.0 4.0 -1 33
r 0.193651 2 3 ping 64 ------- 0 1.0 5.0 -1 3
+ 0.193651 3 5 ping 64 ------- 0 1.0 5.0 -1 3
- 0.193651 3 5 ping 64 ------- 0 1.0 5.0 -1 3
+ 0.2 0 2 ping 64 ------- 0 0.0 4.0 -1 37
- 0.2 0 2 ping 64 ------- 0 0.0 4.0 -1 37
+ 0.2 1 2 ping 64 ------- 0 1.0 5.0 -1 38
- 0.2 1 2 ping 64 ------- 0 1.0 5.0 -1 38
r 0.200051 1 2 ping 64 ------- 0 1.0 5.0 -1 36
+ 0.200051 2 3 ping 64 ------- 0 1.0 5.0 -1 36
d 0.200051 2 3 ping 64 ------- 0 1.0 5.0 -1 36
r 0.200512 0 2 ping 64 ------- 0 0.0 4.0 -1 35
+ 0.200512 2 3 ping 64 ------- 0 0.0 4.0 -1 35
d 0.200512 2 3 ping 64 ------- 0 0.0 4.0 -1 35
r 0.203702 3 5 ping 64 ------- 0 1.0 5.0 -1 3
+ 0.203702 5 3 ping 64 ------- 0 5.0 1.0 -1 39
- 0.203702 5 3 ping 64 ------- 0 5.0 1.0 -1 39
+ 0.21 0 2 ping 64 ------- 0 0.0 4.0 -1 40
- 0.21 0 2 ping 64 ------- 0 0.0 4.0 -1 40
+ 0.21 1 2 ping 64 ------- 0 1.0 5.0 -1 41
- 0.21 1 2 ping 64 ------- 0 1.0 5.0 -1 41
r 0.210051 1 2 ping 64 ------- 0 1.0 5.0 -1 38
+ 0.210051 2 3 ping 64 ------- 0 1.0 5.0 -1 38
d 0.210051 2 3 ping 64 ------- 0 1.0 5.0 -1 38
r 0.210512 0 2 ping 64 ------- 0 0.0 4.0 -1 37
+ 0.210512 2 3 ping 64 ------- 0 0.0 4.0 -1 37
d 0.210512 2 3 ping 64 ------- 0 0.0 4.0 -1 37
r 0.213754 5 3 ping 64 ------- 0 5.0 1.0 -1 39
+ 0.213754 3 2 ping 64 ------- 0 5.0 1.0 -1 39
- 0.213754 3 2 ping 64 ------- 0 5.0 1.0 -1 39
+ 0.22 0 2 ping 64 ------- 0 0.0 4.0 -1 42
- 0.22 0 2 ping 64 ------- 0 0.0 4.0 -1 42
+ 0.22 1 2 ping 64 ------- 0 1.0 5.0 -1 43
- 0.22 1 2 ping 64 ------- 0 1.0 5.0 -1 43
r 0.220051 1 2 ping 64 ------- 0 1.0 5.0 -1 41
+ 0.220051 2 3 ping 64 ------- 0 1.0 5.0 -1 41
d 0.220051 2 3 ping 64 ------- 0 1.0 5.0 -1 41
r 0.220512 0 2 ping 64 ------- 0 0.0 4.0 -1 40
+ 0.220512 2 3 ping 64 ------- 0 0.0 4.0 -1 40
d 0.220512 2 3 ping 64 ------- 0 0.0 4.0 -1 40
+ 0.23 0 2 ping 64 ------- 0 0.0 4.0 -1 44
- 0.23 0 2 ping 64 ------- 0 0.0 4.0 -1 44
+ 0.23 1 2 ping 64 ------- 0 1.0 5.0 -1 45
- 0.23 1 2 ping 64 ------- 0 1.0 5.0 -1 45
r 0.230051 1 2 ping 64 ------- 0 1.0 5.0 -1 43
+ 0.230051 2 3 ping 64 ------- 0 1.0 5.0 -1 43
d 0.230051 2 3 ping 64 ------- 0 1.0 5.0 -1 43
r 0.230512 0 2 ping 64 ------- 0 0.0 4.0 -1 42
+ 0.230512 2 3 ping 64 ------- 0 0.0 4.0 -1 42
d 0.230512 2 3 ping 64 ------- 0 0.0 4.0 -1 42
- 0.234851 2 3 ping 64 ------- 0 1.0 5.0 -1 5
+ 0.24 0 2 ping 64 ------- 0 0.0 4.0 -1 46
- 0.24 0 2 ping 64 ------- 0 0.0 4.0 -1 46
+ 0.24 1 2 ping 64 ------- 0 1.0 5.0 -1 47
- 0.24 1 2 ping 64 ------- 0 1.0 5.0 -1 47
r 0.240051 1 2 ping 64 ------- 0 1.0 5.0 -1 45
+ 0.240051 2 3 ping 64 ------- 0 1.0 5.0 -1 45
r 0.240512 0 2 ping 64 ------- 0 0.0 4.0 -1 44
+ 0.240512 2 3 ping 64 ------- 0 0.0 4.0 -1 44
d 0.240512 2 3 ping 64 ------- 0 0.0 4.0 -1 44
r 0.244851 2 3 ping 64 ------- 0 0.0 4.0 -1 2
+ 0.244851 3 4 ping 64 ------- 0 0.0 4.0 -1 2
d 0.244851 3 4 ping 64 ------- 0 0.0 4.0 -1 2
+ 0.25 0 2 ping 64 ------- 0 0.0 4.0 -1 48
- 0.25 0 2 ping 64 ------- 0 0.0 4.0 -1 48
+ 0.25 1 2 ping 64 ------- 0 1.0 5.0 -1 49
- 0.25 1 2 ping 64 ------- 0 1.0 5.0 -1 49
r 0.250051 1 2 ping 64 ------- 0 1.0 5.0 -1 47
+ 0.250051 2 3 ping 64 ------- 0 1.0 5.0 -1 47
d 0.250051 2 3 ping 64 ------- 0 1.0 5.0 -1 47
r 0.250512 0 2 ping 64 ------- 0 0.0 4.0 -1 46
+ 0.250512 2 3 ping 64 ------- 0 0.0 4.0 -1 46
d 0.250512 2 3 ping 64 ------- 0 0.0 4.0 -1 46
+ 0.26 0 2 ping 64 ------- 0 0.0 4.0 -1 50
- 0.26 0 2 ping 64 ------- 0 0.0 4.0 -1 50
+ 0.26 1 2 ping 64 ------- 0 1.0 5.0 -1 51
- 0.26 1 2 ping 64 ------- 0 1.0 5.0 -1 51
r 0.260051 1 2 ping 64 ------- 0 1.0 5.0 -1 49
+ 0.260051 2 3 ping 64 ------- 0 1.0 5.0 -1 49
d 0.260051 2 3 ping 64 ------- 0 1.0 5.0 -1 49
r 0.260512 0 2 ping 64 ------- 0 0.0 4.0 -1 48
+ 0.260512 2 3 ping 64 ------- 0 0.0 4.0 -1 48
d 0.260512 2 3 ping 64 ------- 0 0.0 4.0 -1 48
+ 0.27 0 2 ping 64 ------- 0 0.0 4.0 -1 52
- 0.27 0 2 ping 64 ------- 0 0.0 4.0 -1 52
+ 0.27 1 2 ping 64 ------- 0 1.0 5.0 -1 53
- 0.27 1 2 ping 64 ------- 0 1.0 5.0 -1 53
r 0.270051 1 2 ping 64 ------- 0 1.0 5.0 -1 51
+ 0.270051 2 3 ping 64 ------- 0 1.0 5.0 -1 51
d 0.270051 2 3 ping 64 ------- 0 1.0 5.0 -1 51
r 0.270512 0 2 ping 64 ------- 0 0.0 4.0 -1 50
+ 0.270512 2 3 ping 64 ------- 0 0.0 4.0 -1 50
d 0.270512 2 3 ping 64 ------- 0 0.0 4.0 -1 50
r 0.274954 3 2 ping 64 ------- 0 5.0 1.0 -1 39
+ 0.274954 2 1 ping 64 ------- 0 5.0 1.0 -1 39
- 0.274954 2 1 ping 64 ------- 0 5.0 1.0 -1 39
+ 0.28 0 2 ping 64 ------- 0 0.0 4.0 -1 54
- 0.28 0 2 ping 64 ------- 0 0.0 4.0 -1 54
+ 0.28 1 2 ping 64 ------- 0 1.0 5.0 -1 55
- 0.28 1 2 ping 64 ------- 0 1.0 5.0 -1 55
r 0.280051 1 2 ping 64 ------- 0 1.0 5.0 -1 53
+ 0.280051 2 3 ping 64 ------- 0 1.0 5.0 -1 53
d 0.280051 2 3 ping 64 ------- 0 1.0 5.0 -1 53
r 0.280512 0 2 ping 64 ------- 0 0.0 4.0 -1 52
+ 0.280512 2 3 ping 64 ------- 0 0.0 4.0 -1 52
d 0.280512 2 3 ping 64 ------- 0 0.0 4.0 -1 52
r 0.285005 2 1 ping 64 ------- 0 5.0 1.0 -1 39
- 0.286051 2 3 ping 64 ------- 0 1.0 5.0 -1 13
+ 0.29 0 2 ping 64 ------- 0 0.0 4.0 -1 56
- 0.29 0 2 ping 64 ------- 0 0.0 4.0 -1 56
+ 0.29 1 2 ping 64 ------- 0 1.0 5.0 -1 57
- 0.29 1 2 ping 64 ------- 0 1.0 5.0 -1 57
r 0.290051 1 2 ping 64 ------- 0 1.0 5.0 -1 55
+ 0.290051 2 3 ping 64 ------- 0 1.0 5.0 -1 55
r 0.290512 0 2 ping 64 ------- 0 0.0 4.0 -1 54
+ 0.290512 2 3 ping 64 ------- 0 0.0 4.0 -1 54
d 0.290512 2 3 ping 64 ------- 0 0.0 4.0 -1 54
r 0.296051 2 3 ping 64 ------- 0 1.0 5.0 -1 5
+ 0.296051 3 5 ping 64 ------- 0 1.0 5.0 -1 5
- 0.296051 3 5 ping 64 ------- 0 1.0 5.0 -1 5
+ 0.3 0 2 ping 64 ------- 0 0.0 4.0 -1 58
- 0.3 0 2 ping 64 ------- 0 0.0 4.0 -1 58
+ 0.3 1 2 ping 64 ------- 0 1.0 5.0 -1 59
- 0.3 1 2 ping 64 ------- 0 1.0 5.0 -1 59
r 0.300051 1 2 ping 64 ------- 0 1.0 5.0 -1 57
+ 0.300051 2 3 ping 64 ------- 0 1.0 5.0 -1 57
d 0.300051 2 3 ping 64 ------- 0 1.0 5.0 -1 57
r 0.300512 0 2 ping 64 ------- 0 0.0 4.0 -1 56
+ 0.300512 2 3 ping 64 ------- 0 0.0 4.0 -1 56
d 0.300512 2 3 ping 64 ------- 0 0.0 4.0 -1 56
r 0.306102 3 5 ping 64 ------- 0 1.0 5.0 -1 5
+ 0.306102 5 3 ping 64 ------- 0 5.0 1.0 -1 60
- 0.306102 5 3 ping 64 ------- 0 5.0 1.0 -1 60
+ 0.31 0 2 ping 64 ------- 0 0.0 4.0 -1 61
- 0.31 0 2 ping 64 ------- 0 0.0 4.0 -1 61
+ 0.31 1 2 ping 64 ------- 0 1.0 5.0 -1 62
- 0.31 1 2 ping 64 ------- 0 1.0 5.0 -1 62
r 0.310051 1 2 ping 64 ------- 0 1.0 5.0 -1 59
+ 0.310051 2 3 ping 64 ------- 0 1.0 5.0 -1 59
d 0.310051 2 3 ping 64 ------- 0 1.0 5.0 -1 59
r 0.310512 0 2 ping 64 ------- 0 0.0 4.0 -1 58
+ 0.310512 2 3 ping 64 ------- 0 0.0 4.0 -1 58
d 0.310512 2 3 ping 64 ------- 0 0.0 4.0 -1 58
r 0.316154 5 3 ping 64 ------- 0 5.0 1.0 -1 60
+ 0.316154 3 2 ping 64 ------- 0 5.0 1.0 -1 60
- 0.316154 3 2 ping 64 ------- 0 5.0 1.0 -1 60
+ 0.32 0 2 ping 64 ------- 0 0.0 4.0 -1 63
- 0.32 0 2 ping 64 ------- 0 0.0 4.0 -1 63
+ 0.32 1 2 ping 64 ------- 0 1.0 5.0 -1 64
- 0.32 1 2 ping 64 ------- 0 1.0 5.0 -1 64
r 0.320051 1 2 ping 64 ------- 0 1.0 5.0 -1 62
+ 0.320051 2 3 ping 64 ------- 0 1.0 5.0 -1 62
d 0.320051 2 3 ping 64 ------- 0 1.0 5.0 -1 62
r 0.320512 0 2 ping 64 ------- 0 0.0 4.0 -1 61
+ 0.320512 2 3 ping 64 ------- 0 0.0 4.0 -1 61
d 0.320512 2 3 ping 64 ------- 0 0.0 4.0 -1 61
+ 0.33 0 2 ping 64 ------- 0 0.0 4.0 -1 65
- 0.33 0 2 ping 64 ------- 0 0.0 4.0 -1 65
+ 0.33 1 2 ping 64 ------- 0 1.0 5.0 -1 66
- 0.33 1 2 ping 64 ------- 0 1.0 5.0 -1 66
r 0.330051 1 2 ping 64 ------- 0 1.0 5.0 -1 64
+ 0.330051 2 3 ping 64 ------- 0 1.0 5.0 -1 64
d 0.330051 2 3 ping 64 ------- 0 1.0 5.0 -1 64
r 0.330512 0 2 ping 64 ------- 0 0.0 4.0 -1 63
+ 0.330512 2 3 ping 64 ------- 0 0.0 4.0 -1 63
d 0.330512 2 3 ping 64 ------- 0 0.0 4.0 -1 63
- 0.337251 2 3 ping 64 ------- 0 1.0 5.0 -1 24
+ 0.34 0 2 ping 64 ------- 0 0.0 4.0 -1 67
- 0.34 0 2 ping 64 ------- 0 0.0 4.0 -1 67
+ 0.34 1 2 ping 64 ------- 0 1.0 5.0 -1 68
- 0.34 1 2 ping 64 ------- 0 1.0 5.0 -1 68
r 0.340051 1 2 ping 64 ------- 0 1.0 5.0 -1 66
+ 0.340051 2 3 ping 64 ------- 0 1.0 5.0 -1 66
r 0.340512 0 2 ping 64 ------- 0 0.0 4.0 -1 65
+ 0.340512 2 3 ping 64 ------- 0 0.0 4.0 -1 65
d 0.340512 2 3 ping 64 ------- 0 0.0 4.0 -1 65
r 0.347251 2 3 ping 64 ------- 0 1.0 5.0 -1 13
+ 0.347251 3 5 ping 64 ------- 0 1.0 5.0 -1 13
- 0.347251 3 5 ping 64 ------- 0 1.0 5.0 -1 13
+ 0.35 0 2 ping 64 ------- 0 0.0 4.0 -1 69
- 0.35 0 2 ping 64 ------- 0 0.0 4.0 -1 69
+ 0.35 1 2 ping 64 ------- 0 1.0 5.0 -1 70
- 0.35 1 2 ping 64 ------- 0 1.0 5.0 -1 70
r 0.350051 1 2 ping 64 ------- 0 1.0 5.0 -1 68
+ 0.350051 2 3 ping 64 ------- 0 1.0 5.0 -1 68
d 0.350051 2 3 ping 64 ------- 0 1.0 5.0 -1 68
r 0.350512 0 2 ping 64 ------- 0 0.0 4.0 -1 67
+ 0.350512 2 3 ping 64 ------- 0 0.0 4.0 -1 67
d 0.350512 2 3 ping 64 ------- 0 0.0 4.0 -1 67
r 0.357302 3 5 ping 64 ------- 0 1.0 5.0 -1 13
+ 0.357302 5 3 ping 64 ------- 0 5.0 1.0 -1 71
- 0.357302 5 3 ping 64 ------- 0 5.0 1.0 -1 71
+ 0.36 0 2 ping 64 ------- 0 0.0 4.0 -1 72
- 0.36 0 2 ping 64 ------- 0 0.0 4.0 -1 72
+ 0.36 1 2 ping 64 ------- 0 1.0 5.0 -1 73
- 0.36 1 2 ping 64 ------- 0 1.0 5.0 -1 73
r 0.360051 1 2 ping 64 ------- 0 1.0 5.0 -1 70
+ 0.360051 2 3 ping 64 ------- 0 1.0 5.0 -1 70
d 0.360051 2 3 ping 64 ------- 0 1.0 5.0 -1 70
r 0.360512 0 2 ping 64 ------- 0 0.0 4.0 -1 69
+ 0.360512 2 3 ping 64 ------- 0 0.0 4.0 -1 69
d 0.360512 2 3 ping 64 ------- 0 0.0 4.0 -1 69
r 0.367354 5 3 ping 64 ------- 0 5.0 1.0 -1 71
+ 0.367354 3 2 ping 64 ------- 0 5.0 1.0 -1 71
- 0.367354 3 2 ping 64 ------- 0 5.0 1.0 -1 71
+ 0.37 0 2 ping 64 ------- 0 0.0 4.0 -1 74
- 0.37 0 2 ping 64 ------- 0 0.0 4.0 -1 74
+ 0.37 1 2 ping 64 ------- 0 1.0 5.0 -1 75
- 0.37 1 2 ping 64 ------- 0 1.0 5.0 -1 75
r 0.370051 1 2 ping 64 ------- 0 1.0 5.0 -1 73
+ 0.370051 2 3 ping 64 ------- 0 1.0 5.0 -1 73
d 0.370051 2 3 ping 64 ------- 0 1.0 5.0 -1 73
r 0.370512 0 2 ping 64 ------- 0 0.0 4.0 -1 72
+ 0.370512 2 3 ping 64 ------- 0 0.0 4.0 -1 72
d 0.370512 2 3 ping 64 ------- 0 0.0 4.0 -1 72
r 0.377354 3 2 ping 64 ------- 0 5.0 1.0 -1 60
+ 0.377354 2 1 ping 64 ------- 0 5.0 1.0 -1 60
- 0.377354 2 1 ping 64 ------- 0 5.0 1.0 -1 60
+ 0.38 0 2 ping 64 ------- 0 0.0 4.0 -1 76
- 0.38 0 2 ping 64 ------- 0 0.0 4.0 -1 76
+ 0.38 1 2 ping 64 ------- 0 1.0 5.0 -1 77
- 0.38 1 2 ping 64 ------- 0 1.0 5.0 -1 77
r 0.380051 1 2 ping 64 ------- 0 1.0 5.0 -1 75
+ 0.380051 2 3 ping 64 ------- 0 1.0 5.0 -1 75
d 0.380051 2 3 ping 64 ------- 0 1.0 5.0 -1 75
r 0.380512 0 2 ping 64 ------- 0 0.0 4.0 -1 74
+ 0.380512 2 3 ping 64 ------- 0 0.0 4.0 -1 74
d 0.380512 2 3 ping 64 ------- 0 0.0 4.0 -1 74
r 0.387405 2 1 ping 64 ------- 0 5.0 1.0 -1 60
- 0.388451 2 3 ping 64 ------- 0 1.0 5.0 -1 34
+ 0.39 0 2 ping 64 ------- 0 0.0 4.0 -1 78
- 0.39 0 2 ping 64 ------- 0 0.0 4.0 -1 78
+ 0.39 1 2 ping 64 ------- 0 1.0 5.0 -1 79
- 0.39 1 2 ping 64 ------- 0 1.0 5.0 -1 79
r 0.390051 1 2 ping 64 ------- 0 1.0 5.0 -1 77
+ 0.390051 2 3 ping 64 ------- 0 1.0 5.0 -1 77
r 0.390512 0 2 ping 64 ------- 0 0.0 4.0 -1 76
+ 0.390512 2 3 ping 64 ------- 0 0.0 4.0 -1 76
d 0.390512 2 3 ping 64 ------- 0 0.0 4.0 -1 76
r 0.398451 2 3 ping 64 ------- 0 1.0 5.0 -1 24
+ 0.398451 3 5 ping 64 ------- 0 1.0 5.0 -1 24
- 0.398451 3 5 ping 64 ------- 0 1.0 5.0 -1 24
+ 0.4 0 2 ping 64 ------- 0 0.0 4.0 -1 80
- 0.4 0 2 ping 64 ------- 0 0.0 4.0 -1 80
+ 0.4 1 2 ping 64 ------- 0 1.0 5.0 -1 81
- 0.4 1 2 ping 64 ------- 0 1.0 5.0 -1 81
r 0.400051 1 2 ping 64 ------- 0 1.0 5.0 -1 79
+ 0.400051 2 3 ping 64 ------- 0 1.0 5.0 -1 79
d 0.400051 2 3 ping 64 ------- 0 1.0 5.0 -1 79
r 0.400512 0 2 ping 64 ------- 0 0.0 4.0 -1 78
+ 0.400512 2 3 ping 64 ------- 0 0.0 4.0 -1 78
d 0.400512 2 3 ping 64 ------- 0 0.0 4.0 -1 78
r 0.408502 3 5 ping 64 ------- 0 1.0 5.0 -1 24
+ 0.408502 5 3 ping 64 ------- 0 5.0 1.0 -1 82
- 0.408502 5 3 ping 64 ------- 0 5.0 1.0 -1 82
+ 0.41 0 2 ping 64 ------- 0 0.0 4.0 -1 83
- 0.41 0 2 ping 64 ------- 0 0.0 4.0 -1 83
+ 0.41 1 2 ping 64 ------- 0 1.0 5.0 -1 84
- 0.41 1 2 ping 64 ------- 0 1.0 5.0 -1 84
r 0.410051 1 2 ping 64 ------- 0 1.0 5.0 -1 81
+ 0.410051 2 3 ping 64 ------- 0 1.0 5.0 -1 81
d 0.410051 2 3 ping 64 ------- 0 1.0 5.0 -1 81
r 0.410512 0 2 ping 64 ------- 0 0.0 4.0 -1 80
+ 0.410512 2 3 ping 64 ------- 0 0.0 4.0 -1 80
d 0.410512 2 3 ping 64 ------- 0 0.0 4.0 -1 80
r 0.418554 5 3 ping 64 ------- 0 5.0 1.0 -1 82
+ 0.418554 3 2 ping 64 ------- 0 5.0 1.0 -1 82
- 0.418554 3 2 ping 64 ------- 0 5.0 1.0 -1 82
+ 0.42 0 2 ping 64 ------- 0 0.0 4.0 -1 85
- 0.42 0 2 ping 64 ------- 0 0.0 4.0 -1 85
+ 0.42 1 2 ping 64 ------- 0 1.0 5.0 -1 86
- 0.42 1 2 ping 64 ------- 0 1.0 5.0 -1 86
r 0.420051 1 2 ping 64 ------- 0 1.0 5.0 -1 84
+ 0.420051 2 3 ping 64 ------- 0 1.0 5.0 -1 84
d 0.420051 2 3 ping 64 ------- 0 1.0 5.0 -1 84
r 0.420512 0 2 ping 64 ------- 0 0.0 4.0 -1 83
+ 0.420512 2 3 ping 64 ------- 0 0.0 4.0 -1 83
d 0.420512 2 3 ping 64 ------- 0 0.0 4.0 -1 83
r 0.428554 3 2 ping 64 ------- 0 5.0 1.0 -1 71
+ 0.428554 2 1 ping 64 ------- 0 5.0 1.0 -1 71
- 0.428554 2 1 ping 64 ------- 0 5.0 1.0 -1 71
+ 0.43 0 2 ping 64 ------- 0 0.0 4.0 -1 87
- 0.43 0 2 ping 64 ------- 0 0.0 4.0 -1 87
+ 0.43 1 2 ping 64 ------- 0 1.0 5.0 -1 88
- 0.43 1 2 ping 64 ------- 0 1.0 5.0 -1 88
r 0.430051 1 2 ping 64 ------- 0 1.0 5.0 -1 86
+ 0.430051 2 3 ping 64 ------- 0 1.0 5.0 -1 86
d 0.430051 2 3 ping 64 ------- 0 1.0 5.0 -1 86
r 0.430512 0 2 ping 64 ------- 0 0.0 4.0 -1 85
+ 0.430512 2 3 ping 64 ------- 0 0.0 4.0 -1 85
d 0.430512 2 3 ping 64 ------- 0 0.0 4.0 -1 85
r 0.438605 2 1 ping 64 ------- 0 5.0 1.0 -1 71
- 0.439651 2 3 ping 64 ------- 0 1.0 5.0 -1 45
+ 0.44 0 2 ping 64 ------- 0 0.0 4.0 -1 89
- 0.44 0 2 ping 64 ------- 0 0.0 4.0 -1 89
+ 0.44 1 2 ping 64 ------- 0 1.0 5.0 -1 90
- 0.44 1 2 ping 64 ------- 0 1.0 5.0 -1 90
r 0.440051 1 2 ping 64 ------- 0 1.0 5.0 -1 88
+ 0.440051 2 3 ping 64 ------- 0 1.0 5.0 -1 88
r 0.440512 0 2 ping 64 ------- 0 0.0 4.0 -1 87
+ 0.440512 2 3 ping 64 ------- 0 0.0 4.0 -1 87
d 0.440512 2 3 ping 64 ------- 0 0.0 4.0 -1 87
r 0.449651 2 3 ping 64 ------- 0 1.0 5.0 -1 34
+ 0.449651 3 5 ping 64 ------- 0 1.0 5.0 -1 34
- 0.449651 3 5 ping 64 ------- 0 1.0 5.0 -1 34
+ 0.45 0 2 ping 64 ------- 0 0.0 4.0 -1 91
- 0.45 0 2 ping 64 ------- 0 0.0 4.0 -1 91
+ 0.45 1 2 ping 64 ------- 0 1.0 5.0 -1 92
- 0.45 1 2 ping 64 ------- 0 1.0 5.0 -1 92
r 0.450051 1 2 ping 64 ------- 0 1.0 5.0 -1 90
+ 0.450051 2 3 ping 64 ------- 0 1.0 5.0 -1 90
d 0.450051 2 3 ping 64 ------- 0 1.0 5.0 -1 90
r 0.450512 0 2 ping 64 ------- 0 0.0 4.0 -1 89
+ 0.450512 2 3 ping 64 ------- 0 0.0 4.0 -1 89
d 0.450512 2 3 ping 64 ------- 0 0.0 4.0 -1 89
r 0.459702 3 5 ping 64 ------- 0 1.0 5.0 -1 34
+ 0.459702 5 3 ping 64 ------- 0 5.0 1.0 -1 93
- 0.459702 5 3 ping 64 ------- 0 5.0 1.0 -1 93
+ 0.46 0 2 ping 64 ------- 0 0.0 4.0 -1 94
- 0.46 0 2 ping 64 ------- 0 0.0 4.0 -1 94
+ 0.46 1 2 ping 64 ------- 0 1.0 5.0 -1 95
- 0.46 1 2 ping 64 ------- 0 1.0 5.0 -1 95
r 0.460051 1 2 ping 64 ------- 0 1.0 5.0 -1 92
+ 0.460051 2 3 ping 64 ------- 0 1.0 5.0 -1 92
d 0.460051 2 3 ping 64 ------- 0 1.0 5.0 -1 92
r 0.460512 0 2 ping 64 ------- 0 0.0 4.0 -1 91
+ 0.460512 2 3 ping 64 ------- 0 0.0 4.0 -1 91
d 0.460512 2 3 ping 64 ------- 0 0.0 4.0 -1 91
r 0.469754 5 3 ping 64 ------- 0 5.0 1.0 -1 93
+ 0.469754 3 2 ping 64 ------- 0 5.0 1.0 -1 93
- 0.469754 3 2 ping 64 ------- 0 5.0 1.0 -1 93
+ 0.47 0 2 ping 64 ------- 0 0.0 4.0 -1 96
- 0.47 0 2 ping 64 ------- 0 0.0 4.0 -1 96
+ 0.47 1 2 ping 64 ------- 0 1.0 5.0 -1 97
- 0.47 1 2 ping 64 ------- 0 1.0 5.0 -1 97
r 0.470051 1 2 ping 64 ------- 0 1.0 5.0 -1 95
+ 0.470051 2 3 ping 64 ------- 0 1.0 5.0 -1 95
d 0.470051 2 3 ping 64 ------- 0 1.0 5.0 -1 95
r 0.470512 0 2 ping 64 ------- 0 0.0 4.0 -1 94
+ 0.470512 2 3 ping 64 ------- 0 0.0 4.0 -1 94
d 0.470512 2 3 ping 64 ------- 0 0.0 4.0 -1 94
r 0.479754 3 2 ping 64 ------- 0 5.0 1.0 -1 82
+ 0.479754 2 1 ping 64 ------- 0 5.0 1.0 -1 82
- 0.479754 2 1 ping 64 ------- 0 5.0 1.0 -1 82
+ 0.48 0 2 ping 64 ------- 0 0.0 4.0 -1 98
- 0.48 0 2 ping 64 ------- 0 0.0 4.0 -1 98
+ 0.48 1 2 ping 64 ------- 0 1.0 5.0 -1 99
- 0.48 1 2 ping 64 ------- 0 1.0 5.0 -1 99
r 0.480051 1 2 ping 64 ------- 0 1.0 5.0 -1 97
+ 0.480051 2 3 ping 64 ------- 0 1.0 5.0 -1 97
d 0.480051 2 3 ping 64 ------- 0 1.0 5.0 -1 97
r 0.480512 0 2 ping 64 ------- 0 0.0 4.0 -1 96
+ 0.480512 2 3 ping 64 ------- 0 0.0 4.0 -1 96
d 0.480512 2 3 ping 64 ------- 0 0.0 4.0 -1 96
r 0.489805 2 1 ping 64 ------- 0 5.0 1.0 -1 82
+ 0.49 0 2 ping 64 ------- 0 0.0 4.0 -1 100
- 0.49 0 2 ping 64 ------- 0 0.0 4.0 -1 100
+ 0.49 1 2 ping 64 ------- 0 1.0 5.0 -1 101
- 0.49 1 2 ping 64 ------- 0 1.0 5.0 -1 101
r 0.490051 1 2 ping 64 ------- 0 1.0 5.0 -1 99
+ 0.490051 2 3 ping 64 ------- 0 1.0 5.0 -1 99
d 0.490051 2 3 ping 64 ------- 0 1.0 5.0 -1 99
r 0.490512 0 2 ping 64 ------- 0 0.0 4.0 -1 98
+ 0.490512 2 3 ping 64 ------- 0 0.0 4.0 -1 98
d 0.490512 2 3 ping 64 ------- 0 0.0 4.0 -1 98
- 0.490851 2 3 ping 64 ------- 0 1.0 5.0 -1 55
+ 0.5 0 2 ping 64 ------- 0 0.0 4.0 -1 102
- 0.5 0 2 ping 64 ------- 0 0.0 4.0 -1 102
+ 0.5 1 2 ping 64 ------- 0 1.0 5.0 -1 103
- 0.5 1 2 ping 64 ------- 0 1.0 5.0 -1 103
r 0.500051 1 2 ping 64 ------- 0 1.0 5.0 -1 101
+ 0.500051 2 3 ping 64 ------- 0 1.0 5.0 -1 101
r 0.500512 0 2 ping 64 ------- 0 0.0 4.0 -1 100
+ 0.500512 2 3 ping 64 ------- 0 0.0 4.0 -1 100
d 0.500512 2 3 ping 64 ------- 0 0.0 4.0 -1 100
r 0.500851 2 3 ping 64 ------- 0 1.0 5.0 -1 45
+ 0.500851 3 5 ping 64 ------- 0 1.0 5.0 -1 45
- 0.500851 3 5 ping 64 ------- 0 1.0 5.0 -1 45
+ 0.51 0 2 ping 64 ------- 0 0.0 4.0 -1 104
- 0.51 0 2 ping 64 ------- 0 0.0 4.0 -1 104
+ 0.51 1 2 ping 64 ------- 0 1.0 5.0 -1 105
- 0.51 1 2 ping 64 ------- 0 1.0 5.0 -1 105
r 0.510051 1 2 ping 64 ------- 0 1.0 5.0 -1 103
+ 0.510051 2 3 ping 64 ------- 0 1.0 5.0 -1 103
d 0.510051 2 3 ping 64 ------- 0 1.0 5.0 -1 103
r 0.510512 0 2 ping 64 ------- 0 0.0 4.0 -1 102
+ 0.510512 2 3 ping 64 ------- 0 0.0 4.0 -1 102
d 0.510512 2 3 ping 64 ------- 0 0.0 4.0 -1 102
r 0.510902 3 5 ping 64 ------- 0 1.0 5.0 -1 45
+ 0.510902 5 3 ping 64 ------- 0 5.0 1.0 -1 106
- 0.510902 5 3 ping 64 ------- 0 5.0 1.0 -1 106
+ 0.52 0 2 ping 64 ------- 0 0.0 4.0 -1 107
- 0.52 0 2 ping 64 ------- 0 0.0 4.0 -1 107
+ 0.52 1 2 ping 64 ------- 0 1.0 5.0 -1 108
- 0.52 1 2 ping 64 ------- 0 1.0 5.0 -1 108
r 0.520051 1 2 ping 64 ------- 0 1.0 5.0 -1 105
+ 0.520051 2 3 ping 64 ------- 0 1.0 5.0 -1 105
d 0.520051 2 3 ping 64 ------- 0 1.0 5.0 -1 105
r 0.520512 0 2 ping 64 ------- 0 0.0 4.0 -1 104
+ 0.520512 2 3 ping 64 ------- 0 0.0 4.0 -1 104
d 0.520512 2 3 ping 64 ------- 0 0.0 4.0 -1 104
r 0.520954 5 3 ping 64 ------- 0 5.0 1.0 -1 106
+ 0.520954 3 2 ping 64 ------- 0 5.0 1.0 -1 106
- 0.520954 3 2 ping 64 ------- 0 5.0 1.0 -1 106
+ 0.53 0 2 ping 64 ------- 0 0.0 4.0 -1 109
- 0.53 0 2 ping 64 ------- 0 0.0 4.0 -1 109
+ 0.53 1 2 ping 64 ------- 0 1.0 5.0 -1 110
- 0.53 1 2 ping 64 ------- 0 1.0 5.0 -1 110
r 0.530051 1 2 ping 64 ------- 0 1.0 5.0 -1 108
+ 0.530051 2 3 ping 64 ------- 0 1.0 5.0 -1 108
d 0.530051 2 3 ping 64 ------- 0 1.0 5.0 -1 108
r 0.530512 0 2 ping 64 ------- 0 0.0 4.0 -1 107
+ 0.530512 2 3 ping 64 ------- 0 0.0 4.0 -1 107
d 0.530512 2 3 ping 64 ------- 0 0.0 4.0 -1 107
r 0.530954 3 2 ping 64 ------- 0 5.0 1.0 -1 93
+ 0.530954 2 1 ping 64 ------- 0 5.0 1.0 -1 93
- 0.530954 2 1 ping 64 ------- 0 5.0 1.0 -1 93
+ 0.54 0 2 ping 64 ------- 0 0.0 4.0 -1 111
- 0.54 0 2 ping 64 ------- 0 0.0 4.0 -1 111
+ 0.54 1 2 ping 64 ------- 0 1.0 5.0 -1 112
- 0.54 1 2 ping 64 ------- 0 1.0 5.0 -1 112
r 0.540051 1 2 ping 64 ------- 0 1.0 5.0 -1 110
+ 0.540051 2 3 ping 64 ------- 0 1.0 5.0 -1 110
d 0.540051 2 3 ping 64 ------- 0 1.0 5.0 -1 110
r 0.540512 0 2 ping 64 ------- 0 0.0 4.0 -1 109
+ 0.540512 2 3 ping 64 ------- 0 0.0 4.0 -1 109
d 0.540512 2 3 ping 64 ------- 0 0.0 4.0 -1 109
r 0.541005 2 1 ping 64 ------- 0 5.0 1.0 -1 93
- 0.542051 2 3 ping 64 ------- 0 1.0 5.0 -1 66
+ 0.55 0 2 ping 64 ------- 0 0.0 4.0 -1 113
- 0.55 0 2 ping 64 ------- 0 0.0 4.0 -1 113
+ 0.55 1 2 ping 64 ------- 0 1.0 5.0 -1 114
- 0.55 1 2 ping 64 ------- 0 1.0 5.0 -1 114
r 0.550051 1 2 ping 64 ------- 0 1.0 5.0 -1 112
+ 0.550051 2 3 ping 64 ------- 0 1.0 5.0 -1 112
r 0.550512 0 2 ping 64 ------- 0 0.0 4.0 -1 111
+ 0.550512 2 3 ping 64 ------- 0 0.0 4.0 -1 111
d 0.550512 2 3 ping 64 ------- 0 0.0 4.0 -1 111
r 0.552051 2 3 ping 64 ------- 0 1.0 5.0 -1 55
+ 0.552051 3 5 ping 64 ------- 0 1.0 5.0 -1 55
- 0.552051 3 5 ping 64 ------- 0 1.0 5.0 -1 55
+ 0.56 0 2 ping 64 ------- 0 0.0 4.0 -1 115
- 0.56 0 2 ping 64 ------- 0 0.0 4.0 -1 115
+ 0.56 1 2 ping 64 ------- 0 1.0 5.0 -1 116
- 0.56 1 2 ping 64 ------- 0 1.0 5.0 -1 116
r 0.560051 1 2 ping 64 ------- 0 1.0 5.0 -1 114
+ 0.560051 2 3 ping 64 ------- 0 1.0 5.0 -1 114
d 0.560051 2 3 ping 64 ------- 0 1.0 5.0 -1 114
r 0.560512 0 2 ping 64 ------- 0 0.0 4.0 -1 113
+ 0.560512 2 3 ping 64 ------- 0 0.0 4.0 -1 113
d 0.560512 2 3 ping 64 ------- 0 0.0 4.0 -1 113
r 0.562102 3 5 ping 64 ------- 0 1.0 5.0 -1 55
+ 0.562102 5 3 ping 64 ------- 0 5.0 1.0 -1 117
- 0.562102 5 3 ping 64 ------- 0 5.0 1.0 -1 117
+ 0.57 0 2 ping 64 ------- 0 0.0 4.0 -1 118
- 0.57 0 2 ping 64 ------- 0 0.0 4.0 -1 118
+ 0.57 1 2 ping 64 ------- 0 1.0 5.0 -1 119
- 0.57 1 2 ping 64 ------- 0 1.0 5.0 -1 119
r 0.570051 1 2 ping 64 ------- 0 1.0 5.0 -1 116
+ 0.570051 2 3 ping 64 ------- 0 1.0 5.0 -1 116
d 0.570051 2 3 ping 64 ------- 0 1.0 5.0 -1 116
r 0.570512 0 2 ping 64 ------- 0 0.0 4.0 -1 115
+ 0.570512 2 3 ping 64 ------- 0 0.0 4.0 -1 115
d 0.570512 2 3 ping 64 ------- 0 0.0 4.0 -1 115
r 0.572154 5 3 ping 64 ------- 0 5.0 1.0 -1 117
+ 0.572154 3 2 ping 64 ------- 0 5.0 1.0 -1 117
- 0.572154 3 2 ping 64 ------- 0 5.0 1.0 -1 117
+ 0.58 0 2 ping 64 ------- 0 0.0 4.0 -1 120
- 0.58 0 2 ping 64 ------- 0 0.0 4.0 -1 120
+ 0.58 1 2 ping 64 ------- 0 1.0 5.0 -1 121
- 0.58 1 2 ping 64 ------- 0 1.0 5.0 -1 121
r 0.580051 1 2 ping 64 ------- 0 1.0 5.0 -1 119