V -t * -v 1.0a5 -a 0
A -t * -n 1 -p 0 -o 0x7fffffff -c 30 -a 1
A -t * -h 1 -m 1073741823 -s 0
n -t * -a 4 -s 4 -S UP -v circle -c black -i black
n -t * -a 0 -s 0 -S UP -v circle -c black -i black
n -t * -a 5 -s 5 -S UP -v circle -c black -i black
n -t * -a 1 -s 1 -S UP -v circle -c black -i black
n -t * -a 2 -s 2 -S UP -v circle -c black -i black
n -t * -a 3 -s 3 -S UP -v circle -c black -i black
l -t * -s 0 -d 2 -S UP -r 1000000 -D 0.01 -c black -o right-down
l -t * -s 1 -d 2 -S UP -r 10000000 -D 0.01 -c black -o right-up
l -t * -s 2 -d 3 -S UP -r 10000 -D 0.01 -c black -o right
l -t * -s 3 -d 4 -S UP -r 100000 -D 0.01 -c black -o right-up
l -t * -s 3 -d 5 -S UP -r 10000000 -D 0.01 -c black -o right-down
+ -t 0.02 -s 0 -d 2 -p ping -e 64 -c 0 -i 0 -a 0 -x {0.0 4.0 -1 ------- null}
- -t 0.02 -s 0 -d 2 -p ping -e 64 -c 0 -i 0 -a 0 -x {0.0 4.0 -1 ------- null}
h -t 0.02 -s 0 -d 2 -p ping -e 64 -c 0 -i 0 -a 0 -x {0.0 4.0 -1 ------- null}
+ -t 0.02 -s 1 -d 2 -p ping -e 64 -c 0 -i 1 -a 0 -x {1.0 5.0 -1 ------- null}
- -t 0.02 -s 1 -d 2 -p ping -e 64 -c 0 -i 1 -a 0 -x {1.0 5.0 -1 ------- null}
h -t 0.02 -s 1 -d 2 -p ping -e 64 -c 0 -i 1 -a 0 -x {1.0 5.0 -1 ------- null}
+ -t 0.03 -s 0 -d 2 -p ping -e 64 -c 0 -i 2 -a 0 -x {0.0 4.0 -1 ------- null}
- -t 0.03 -s 0 -d 2 -p ping -e 64 -c 0 -i 2 -a 0 -x {0.0 4.0 -1 ------- null}
h -t 0.03 -s 0 -d 2 -p ping -e 64 -c 0 -i 2 -a 0 -x {0.0 4.0 -1 ------- null}
+ -t 0.03 -s 1 -d 2 -p ping -e 64 -c 0 -i 3 -a 0 -x {1.0 5.0 -1 ------- null}
- -t 0.03 -s 1 -d 2 -p ping -e 64 -c 0 -i 3 -a 0 -x {1.0 5.0 -1 ------- null}
h -t 0.03 -s 1 -d 2 -p ping -e 64 -c 0 -i 3 -a 0 -x {1.0 5.0 -1 ------- null}
r -t 0.0300512 -s 1 -d 2 -p ping -e 64 -c 0 -i 1 -a 0 -x {1.0 5.0 -1 ------- null}
+ -t 0.0300512 -s 2 -d 3 -p ping -e 64 -c 0 -i 1 -a 0 -x {1.0 5.0 -1 ------- null}
- -t 0.0300512 -s 2 -d 3 -p ping -e 64 -c 0 -i 1 -a 0 -x {1.0 5.0 -1 ------- null}
h -t 0.0300512 -s 2 -d 3 -p ping -e 64 -c 0 -i 1 -a 0 -x {1.0 5.0 -1 ------- null}
r -t 0.030512 -s 0 -d 2 -p ping -e 64 -c 0 -i 0 -a 0 -x {0.0 4.0 -1 ------- null}
+ -t 0.030512 -s 2 -d 3 -p ping -e 64 -c 0 -i 0 -a 0 -x {0.0 4.0 -1 ------- null}
+ -t 0.04 -s 0 -d 2 -p ping -e 64 -c 0 -i 4 -a 0 -x {0.0 4.0 -1 ------- null}
- -t 0.04 -s 0 -d 2 -p ping -e 64 -c 0 -i 4 -a 0 -x {0.0 4.0 -1 ------- null}
h -t 0.04 -s 0 -d 2 -p ping -e 64 -c 0 -i 4 -a 0 -x {0.0 4.0 -1 ------- null}
+ -t 0.04 -s 1 -d 2 -p ping -e 64 -c 0 -i 5 -a 0 -x {1.0 5.0 -1 ------- null}
- -t 0.04 -s 1 -d 2 -p ping -e 64 -c 0 -i 5 -a 0 -x {1.0 5.0 -1 ------- null}
h -t 0.04 -s 1 -d 2 -p ping -e 64 -c 0 -i 5 -a 0 -x {1.0 5.0 -1 ------- null}
r -t 0.0400512 -s 1 -d 2 -p ping -e 64 -c 0 -i 3 -a 0 -x {1.0 5.0 -1 ------- null}
+ -t 0.0400512 -s 2 -d 3 -p ping -e 64 -c 0 -i 3 -a 0 -x {1.0 5.0 -1 ------- null}
r -t 0.040512 -s 0 -d 2 -p ping -e 64 -c 0 -i 2 -a 0 -x {0.0 4.0 -1 ------- null}
+ -t 0.040512 -s 2 -d 3 -p ping -e 64 -c 0 -i 2 -a 0 -x {0.0 4.0 -1 ------- null}
+ -t 0.05 -s 0 -d 2 -p ping -e 64 -c 0 -i 6 -a 0 -x {0.0 4.0 -1 ------- null}
- -t 0.05 -s 0 -d 2 -p ping -e 64 -c 0 -i 6 -a 0 -x {0.0 4.0 -1 ------- null}
h -t 0.05 -s 0 -d 2 -p ping -e 64 -c 0 -i 6 -a 0 -x {0.0 4.0 -1 ------- null}
+ -t 0.05 -s 1 -d 2 -p ping -e 64 -c 0 -i 7 -a 0 -x {1.0 5.0 -1 ------- null}
- -t 0.05 -s 1 -d 2 -p ping -e 64 -c 0 -i 7 -a 0 -x {1.0 5.0 -1 ------- null}
h -t 0.05 -s 1 -d 2 -p ping -e 64 -c 0 -i 7 -a 0 -x {1.0 5.0 -1 ------- null}
r -t 0.0500512 -s 1 -d 2 -p ping -e 64 -c 0 -i 5 -a 0 -x {1.0 5.0 -1 ------- null}
+ -t 0.0500512 -s 2 -d 3 -p ping -e 64 -c 0 -i 5 -a 0 -x {1.0 5.0 -1 ------- null}
r -t 0.050512 -s 0 -d 2 -p ping -e 64 -c 0 -i 4 -a 0 -x {0.0 4.0 -1 ------- null}
+ -t 0.050512 -s 2 -d 3 -p ping -e 64 -c 0 -i 4 -a 0 -x {0.0 4.0 -1 ------- null}
d -t 0.050512 -s 2 -d 3 -p ping -e 64 -c 0 -i 4 -a 0 -x {0.0 4.0 -1 ------- null}
+ -t 0.06 -s 0 -d 2 -p ping -e 64 -c 0 -i 8 -a 0 -x {0.0 4.0 -1 ------- null}
- -t 0.06 -s 0 -d 2 -p ping -e 64 -c 0 -i 8 -a 0 -x {0.0 4.0 -1 ------- null}
h -t 0.06 -s 0 -d 2 -p ping -e 64 -c 0 -i 8 -a 0 -x {0.0 4.0 -1 ------- null}
+ -t 0.06 -s 1 -d 2 -p ping -e 64 -c 0 -i 9 -a 0 -x {1.0 5.0 -1 ------- null}
- -t 0.06 -s 1 -d 2 -p ping -e 64 -c 0 -i 9 -a 0 -x {1.0 5.0 -1 ------- null}
h -t 0.06 -s 1 -d 2 -p ping -e 64 -c 0 -i 9 -a 0 -x {1.0 5.0 -1 ------- null}
r -t 0.0600512 -s 1 -d 2 -p ping -e 64 -c 0 -i 7 -a 0 -x {1.0 5.0 -1 ------- null}
+ -t 0.0600512 -s 2 -d 3 -p ping -e 64 -c 0 -i 7 -a 0 -x {1.0 5.0 -1 ------- null}
d -t 0.0600512 -s 2 -d 3 -p ping -e 64 -c 0 -i 7 -a 0 -x {1.0 5.0 -1 ------- null}
r -t 0.060512 -s 0 -d 2 -p ping -e 64 -c 0 -i 6 -a 0 -x {0.0 4.0 -1 ------- null}
+ -t 0.060512 -s 2 -d 3 -p ping -e 64 -c 0 -i 6 -a 0 -x {0.0 4.0 -1 ------- null}
d -t 0.060512 -s 2 -d 3 -p ping -e 64 -c 0 -i 6 -a 0 -x {0.0 4.0 -1 ------- null}
+ -t 0.07 -s 0 -d 2 -p ping -e 64 -c 0 -i 10 -a 0 -x {0.0 4.0 -1 ------- null}
- -t 0.07 -s 0 -d 2 -p ping -e 64 -c 0 -i 10 -a 0 -x {0.0 4.0 -1 ------- null}
h -t 0.07 -s 0 -d 2 -p ping -e 64 -c 0 -i 10 -a 0 -x {0.0 4.0 -1 ------- null}
+ -t 0.07 -s 1 -d 2 -p ping -e 64 -c 0 -i 11 -a 0 -x {1.0 5.0 -1 ------- null}
- -t 0.07 -s 1 -d 2 -p ping -e 64 -c 0 -i 11 -a 0 -x {1.0 5.0 -1 ------- null}
h -t 0.07 -s 1 -d 2 -p ping -e 64 -c 0 -i 11 -a 0 -x {1.0 5.0 -1 ------- null}
r -t 0.0700512 -s 1 -d 2 -p ping -e 64 -c 0 -i 9 -a 0 -x {1.0 5.0 -1 ------- null}
+ -t 0.0700512 -s 2 -d 3 -p ping -e 64 -c 0 -i 9 -a 0 -x {1.0 5.0 -1 ------- null}
d -t 0.0700512 -s 2 -d 3 -p ping -e 64 -c 0 -i 9 -a 0 -x {1.0 5.0 -1 ------- null}
r -t 0.070512 -s 0 -d 2 -p ping -e 64 -c 0 -i 8 -a 0 -x {0.0 4.0 -1 ------- null}
+ -t 0.070512 -s 2 -d 3 -p ping -e 64 -c 0 -i 8 -a 0 -x {0.0 4.0 -1 ------- null}
d -t 0.070512 -s 2 -d 3 -p ping -e 64 -c 0 -i 8 -a 0 -x {0.0 4.0 -1 ------- null}
+ -t 0.08 -s 0 -d 2 -p ping -e 64 -c 0 -i 12 -a 0 -x {0.0 4.0 -1 ------- null}
- -t 0.08 -s 0 -d 2 -p ping -e 64 -c 0 -i 12 -a 0 -x {0.0 4.0 -1 ------- null}
h -t 0.08 -s 0 -d 2 -p ping -e 64 -c 0 -i 12 -a 0 -x {0.0 4.0 -1 ------- null}
+ -t 0.08 -s 1 -d 2 -p ping -e 64 -c 0 -i 13 -a 0 -x {1.0 5.0 -1 ------- null}
- -t 0.08 -s 1 -d 2 -p ping -e 64 -c 0 -i 13 -a 0 -x {1.0 5.0 -1 ------- null}
h -t 0.08 -s 1 -d 2 -p ping -e 64 -c 0 -i 13 -a 0 -x {1.0 5.0 -1 ------- null}
r -t 0.0800512 -s 1 -d 2 -p ping -e 64 -c 0 -i 11 -a 0 -x {1.0 5.0 -1 ------- null}
+ -t 0.0800512 -s 2 -d 3 -p ping -e 64 -c 0 -i 11 -a 0 -x {1.0 5.0 -1 ------- null}
d -t 0.0800512 -s 2 -d 3 -p ping -e 64 -c 0 -i 11 -a 0 -x {1.0 5.0 -1 ------- null}
r -t 0.080512 -s 0 -d 2 -p ping -e 64 -c 0 -i 10 -a 0 -x {0.0 4.0 -1 ------- null}
+ -t 0.080512 -s 2 -d 3 -p ping -e 64 -c 0 -i 10 -a 0 -x {0.0 4.0 -1 ------- null}
d -t 0.080512 -s 2 -d 3 -p ping -e 64 -c 0 -i 10 -a 0 -x {0.0 4.0 -1 ------- null}
- -t 0.0812512 -s 2 -d 3 -p ping -e 64 -c 0 -i 0 -a 0 -x {0.0 4.0 -1 ------- null}
h -t 0.0812512 -s 2 -d 3 -p ping -e 64 -c 0 -i 0 -a 0 -x {0.0 4.0 -1 ------- null}
+ -t 0.09 -s 0 -d 2 -p ping -e 64 -c 0 -i 14 -a 0 -x {0.0 4.0 -1 ------- null}
- -t 0.09 -s 0 -d 2 -p ping -e 64 -c 0 -i 14 -a 0 -x {0.0 4.0 -1 ------- null}
h -t 0.09 -s 0 -d 2 -p ping -e 64 -c 0 -i 14 -a 0 -x {0.0 4.0 -1 ------- null}
+ -t 0.09 -s 1 -d 2 -p ping -e 64 -c 0 -i 15 -a 0 -x {1.0 5.0 -1 ------- null}
- -t 0.09 -s 1 -d 2 -p ping -e 64 -c 0 -i 15 -a 0 -x {1.0 5.0 -1 ------- null}
h -t 0.09 -s 1 -d 2 -p ping -e 64 -c 0 -i 15 -a 0 -x {1.0 5.0 -1 ------- null}
r -t 0.0900512 -s 1 -d 2 -p ping -e 64 -c 0 -i 13 -a 0 -x {1.0 5.0 -1 ------- null}
+ -t 0.0900512 -s 2 -d 3 -p ping -e 64 -c 0 -i 13 -a 0 -x {1.0 5.0 -1 ------- null}
r -t 0.090512 -s 0 -d 2 -p ping -e 64 -c 0 -i 12 -a 0 -x {0.0 4.0 -1 ------- null}
+ -t 0.090512 -s 2 -d 3 -p ping -e 64 -c 0 -i 12 -a 0 -x {0.0 4.0 -1 ------- null}
d -t 0.090512 -s 2 -d 3 -p ping -e 64 -c 0 -i 12 -a 0 -x {0.0 4.0 -1 ------- null}
r -t 0.0912512 -s 2 -d 3 -p ping -e 64 -c 0 -i 1 -a 0 -x {1.0 5.0 -1 ------- null}
+ -t 0.0912512 -s 3 -d 5 -p ping -e 64 -c 0 -i 1 -a 0 -x {1.0 5.0 -1 ------- null}
- -t 0.0912512 -s 3 -d 5 -p ping -e 64 -c 0 -i 1 -a 0 -x {1.0 5.0 -1 ------- null}
h -t 0.0912512 -s 3 -d 5 -p ping -e 64 -c 0 -i 1 -a 0 -x {1.0 5.0 -1 ------- null}
+ -t 0.1 -s 0 -d 2 -p ping -e 64 -c 0 -i 16 -a 0 -x {0.0 4.0 -1 ------- null}
- -t 0.1 -s 0 -d 2 -p ping -e 64 -c 0 -i 16 -a 0 -x {0.0 4.0 -1 ------- null}
h -t 0.1 -s 0 -d 2 -p ping -e 64 -c 0 -i 16 -a 0 -x {0.0 4.0 -1 ------- null}
+ -t 0.1 -s 1 -d 2 -p ping -e 64 -c 0 -i 17 -a 0 -x {1.0 5.0 -1 ------- null}
- -t 0.1 -s 1 -d 2 -p ping -e 64 -c 0 -i 17 -a 0 -x {1.0 5.0 -1 ------- null}
h -t 0.1 -s 1 -d 2 -p ping -e 64 -c 0 -i 17 -a 0 -x {1.0 5.0 -1 ------- null}
r -t 0.1000512 -s 1 -d 2 -p ping -e 64 -c 0 -i 15 -a 0 -x {1.0 5.0 -1 ------- null}
+ -t 0.1000512 -s 2 -d 3 -p ping -e 64 -c 0 -i 15 -a 0 -x {1.0 5.0 -1 ------- null}
d -t 0.1000512 -s 2 -d 3 -p ping -e 64 -c 0 -i 15 -a 0 -x {1.0 5.0 -1 ------- null}
r -t 0.100512 -s 0 -d 2 -p ping -e 64 -c 0 -i 14 -a 0 -x {0.0 4.0 -1 ------- null}
+ -t 0.100512 -s 2 -d 3 -p ping -e 64 -c 0 -i 14 -a 0 -x {0.0 4.0 -1 ------- null}
d -t 0.100512 -s 2 -d 3 -p ping -e 64 -c 0 -i 14 -a 0 -x {0.0 4.0 -1 ------- null}
r -t 0.1013024 -s 3 -d 5 -p ping -e 64 -c 0 -i 1 -a 0 -x {1.0 5.0 -1 ------- null}
+ -t 0.1013024 -s 5 -d 3 -p ping -e 64 -c 0 -i 18 -a 0 -x {5.0 1.0 -1 ------- null}
- -t 0.1013024 -s 5 -d 3 -p ping -e 64 -c 0 -i 18 -a 0 -x {5.0 1.0 -1 ------- null}
h -t 0.1013024 -s 5 -d 3 -p ping -e 64 -c 0 -i 18 -a 0 -x {5.0 1.0 -1 ------- null}
+ -t 0.11 -s 0 -d 2 -p ping -e 64 -c 0 -i 19 -a 0 -x {0.0 4.0 -1 ------- null}
- -t 0.11 -s 0 -d 2 -p ping -e 64 -c 0 -i 19 -a 0 -x {0.0 4.0 -1 ------- null}
h -t 0.11 -s 0 -d 2 -p ping -e 64 -c 0 -i 19 -a 0 -x {0.0 4.0 -1 ------- null}
+ -t 0.11 -s 1 -d 2 -p ping -e 64 -c 0 -i 20 -a 0 -x {1.0 5.0 -1 ------- null}
- -t 0.11 -s 1 -d 2 -p ping -e 64 -c 0 -i 20 -a 0 -x {1.0 5.0 -1 ------- null}
h -t 0.11 -s 1 -d 2 -p ping -e 64 -c 0 -i 20 -a 0 -x {1.0 5.0 -1 ------- null}
r -t 0.1100512 -s 1 -d 2 -p ping -e 64 -c 0 -i 17 -a 0 -x {1.0 5.0 -1 ------- null}
+ -t 0.1100512 -s 2 -d 3 -p ping -e 64 -c 0 -i 17 -a 0 -x {1.0 5.0 -1 ------- null}
d -t 0.1100512 -s 2 -d 3 -p ping -e 64 -c 0 -i 17 -a 0 -x {1.0 5.0 -1 ------- null}
r -t 0.110512 -s 0 -d 2 -p ping -e 64 -c 0 -i 16 -a 0 -x {0.0 4.0 -1 ------- null}
+ -t 0.110512 -s 2 -d 3 -p ping -e 64 -c 0 -i 16 -a 0 -x {0.0 4.0 -1 ------- null}
d -t 0.110512 -s 2 -d 3 -p ping -e 64 -c 0 -i 16 -a 0 -x {0.0 4.0 -1 ------- null}
r -t 0.1113536 -s 5 -d 3 -p ping -e 64 -c 0 -i 18 -a 0 -x {5.0 1.0 -1 ------- null}
+ -t 0.1113536 -s 3 -d 2 -p ping -e 64 -c 0 -i 18 -a 0 -x {5.0 1.0 -1 ------- null}
- -t 0.1113536 -s 3 -d 2 -p ping -e 64 -c 0 -i 18 -a 0 -x {5.0 1.0 -1 ------- null}
h -t 0.1113536 -s 3 -d 2 -p ping -e 64 -c 0 -i 18 -a 0 -x {5.0 1.0 -1 ------- null}
+ -t 0.12 -s 0 -d 2 -p ping -e 64 -c 0 -i 21 -a 0 -x {0.0 4.0 -1 ------- null}
- -t 0.12 -s 0 -d 2 -p ping -e 64 -c 0 -i 21 -a 0 -x {0.0 4.0 -1 ------- null}
h -t 0.12 -s 0 -d 2 -p ping -e 64 -c 0 -i 21 -a 0 -x {0.0 4.0 -1 ------- null}
+ -t 0.12 -s 1 -d 2 -p ping -e 64 -c 0 -i 22 -a 0 -x {1.0 5.0 -1 ------- null}
- -t 0.12 -s 1 -d 2 -p ping -e 64 -c 0 -i 22 -a 0 -x {1.0 5.0 -1 ------- null}
h -t 0.12 -s 1 -d 2 -p ping -e 64 -c 0 -i 22 -a 0 -x {1.0 5.0 -1 ------- null}
r -t 0.1200512 -s 1 -d 2 -p ping -e 64 -c 0 -i 20 -a 0 -x {1.0 5.0 -1 ------- null}
+ -t 0.1200512 -s 2 -d 3 -p ping -e 64 -c 0 -i 20 -a 0 -x {1.0 5.0 -1 ------- null}
d -t 0.1200512 -s 2 -d 3 -p ping -e 64 -c 0 -i 20 -a 0 -x {1.0 5.0 -1 ------- null}
r -t 0.120512 -s 0 -d 2 -p ping -e 64 -c 0 -i 19 -a 0 -x {0.0 4.0 -1 ------- null}
+ -t 0.120512 -s 2 -d 3 -p ping -e 64 -c 0 -i 19 -a 0 -x {0.0 4.0 -1 ------- null}
d -t 0.120512 -s 2 -d 3 -p ping -e 64 -c 0 -i 19 -a 0 -x {0.0 4.0 -1 ------- null}
+ -t 0.13 -s 0 -d 2 -p ping -e 64 -c 0 -i 23 -a 0 -x {0.0 4.0 -1 ------- null}
- -t 0.13 -s 0 -d 2 -p ping -e 64 -c 0 -i 23 -a 0 -x {0.0 4.0 -1 ------- null}
h -t 0.13 -s 0 -d 2 -p ping -e 64 -c 0 -i 23 -a 0 -x {0.0 4.0 -1 ------- null}
+ -t 0.13 -s 1 -d 2 -p ping -e 64 -c 0 -i 24 -a 0 -x {1.0 5.0 -1 ------- null}
- -t 0.13 -s 1 -d 2 -p ping -e 64 -c 0 -i 24 -a 0 -x {1.0 5.0 -1 ------- null}
h -t 0.13 -s 1 -d 2 -p ping -e 64 -c 0 -i 24 -a 0 -x {1.0 5.0 -1 ------- null}
r -t 0.1300512 -s 1 -d 2 -p ping -e 64 -c 0 -i 22 -a 0 -x {1.0 5.0 -1 ------- null}
+ -t 0.1300512 -s 2 -d 3 -p ping -e 64 -c 0 -i 22 -a 0 -x {1.0 5.0 -1 ------- null}
d -t 0.1300512 -s 2 -d 3 -p ping -e 64 -c 0 -i 22 -a 0 -x {1.0 5.0 -1 ------- null}
r -t 0.130512 -s 0 -d 2 -p ping -e 64 -c 0 -i 21 -a 0 -x {0.0 4.0 -1 ------- null}
+ -t 0.130512 -s 2 -d 3 -p ping -e 64 -c 0 -i 21 -a 0 -x {0.0 4.0 -1 ------- null}
d -t 0.130512 -s 2 -d 3 -p ping -e 64 -c 0 -i 21 -a 0 -x {0.0 4.0 -1 ------- null}
- -t 0.1324512 -s 2 -d 3 -p ping -e 64 -c 0 -i 3 -a 0 -x {1.0 5.0 -1 ------- null}
h -t 0.1324512 -s 2 -d 3 -p ping -e 64 -c 0 -i 3 -a 0 -x {1.0 5.0 -1 ------- null}
+ -t 0.14 -s 0 -d 2 -p ping -e 64 -c 0 -i 25 -a 0 -x {0.0 4.0 -1 ------- null}
- -t 0.14 -s 0 -d 2 -p ping -e 64 -c 0 -i 25 -a 0 -x {0.0 4.0 -1 ------- null}
h -t 0.14 -s 0 -d 2 -p ping -e 64 -c 0 -i 25 -a 0 -x {0.0 4.0 -1 ------- null}
+ -t 0.14 -s 1 -d 2 -p ping -e 64 -c 0 -i 26 -a 0 -x {1.0 5.0 -1 ------- null}
- -t 0.14 -s 1 -d 2 -p ping -e 64 -c 0 -i 26 -a 0 -x {1.0 5.0 -1 ------- null}
h -t 0.14 -s 1 -d 2 -p ping -e 64 -c 0 -i 26 -a 0 -x {1.0 5.0 -1 ------- null}
r -t 0.1400512 -s 1 -d 2 -p ping -e 64 -c 0 -i 24 -a 0 -x {1.0 5.0 -1 ------- null}
+ -t 0.1400512 -s 2 -d 3 -p ping -e 64 -c 0 -i 24 -a 0 -x {1.0 5.0 -1 ------- null}
r -t 0.140512 -s 0 -d 2 -p ping -e 64 -c 0 -i 23 -a 0 -x {0.0 4.0 -1 ------- null}
+ -t 0.140512 -s 2 -d 3 -p ping -e 64 -c 0 -i 23 -a 0 -x {0.0 4.0 -1 ------- null}
d -t 0.140512 -s 2 -d 3 -p ping -e 64 -c 0 -i 23 -a 0 -x {0.0 4.0 -1 ------- null}
r -t 0.1424512 -s 2 -d 3 -p ping -e 64 -c 0 -i 0 -a 0 -x {0.0 4.0 -1 ------- null}
+ -t 0.1424512 -s 3 -d 4 -p ping -e 64 -c 0 -i 0 -a 0 -x {0.0 4.0 -1 ------- null}
d -t 0.1424512 -s 3 -d 4 -p ping -e 64 -c 0 -i 0 -a 0 -x {0.0 4.0 -1 ------- null}
+ -t 0.15 -s 0 -d 2 -p ping -e 64 -c 0 -i 27 -a 0 -x {0.0 4.0 -1 ------- null}
- -t 0.15 -s 0 -d 2 -p ping -e 64 -c 0 -i 27 -a 0 -x {0.0 4.0 -1 ------- null}
h -t 0.15 -s 0 -d 2 -p ping -e 64 -c 0 -i 27 -a 0 -x {0.0 4.0 -1 ------- null}
+ -t 0.15 -s 1 -d 2 -p ping -e 64 -c 0 -i 28 -a 0 -x {1.0 5.0 -1 ------- null}
- -t 0.15 -s 1 -d 2 -p ping -e 64 -c 0 -i 28 -a 0 -x {1.0 5.0 -1 ------- null}
h -t 0.15 -s 1 -d 2 -p ping -e 64 -c 0 -i 28 -a 0 -x {1.0 5.0 -1 ------- null}
r -t 0.1500512 -s 1 -d 2 -p ping -e 64 -c 0 -i 26 -a 0 -x {1.0 5.0 -1 ------- null}
+ -t 0.1500512 -s 2 -d 3 -p ping -e 64 -c 0 -i 26 -a 0 -x {1.0 5.0 -1 ------- null}
d -t 0.1500512 -s 2 -d 3 -p ping -e 64 -c 0 -i 26 -a 0 -x {1.0 5.0 -1 ------- null}
r -t 0.150512 -s 0 -d 2 -p ping -e 64 -c 0 -i 25 -a 0 -x {0.0 4.0 -1 ------- null}
+ -t 0.150512 -s 2 -d 3 -p ping -e 64 -c 0 -i 25 -a 0 -x {0.0 4.0 -1 ------- null}
d -t 0.150512 -s 2 -d 3 -p ping -e 64 -c 0 -i 25 -a 0 -x {0.0 4.0 -1 ------- null}
+ -t 0.16 -s 0 -d 2 -p ping -e 64 -c 0 -i 29 -a 0 -x {0.0 4.0 -1 ------- null}
- -t 0.16 -s 0 -d 2 -p ping -e 64 -c 0 -i 29 -a 0 -x {0.0 4.0 -1 ------- null}
h -t 0.16 -s 0 -d 2 -p ping -e 64 -c 0 -i 29 -a 0 -x {0.0 4.0 -1 ------- null}
+ -t 0.16 -s 1 -d 2 -p ping -e 64 -c 0 -i 30 -a 0 -x {1.0 5.0 -1 ------- null}
- -t 0.16 -s 1 -d 2 -p ping -e 64 -c 0 -i 30 -a 0 -x {1.0 5.0 -1 ------- null}
h -t 0.16 -s 1 -d 2 -p ping -e 64 -c 0 -i 30 -a 0 -x {1.0 5.0 -1 ------- null}
r -t 0.1600512 -s 1 -d 2 -p ping -e 64 -c 0 -i 28 -a 0 -x {1.0 5.0 -1 ------- null}
+ -t 0.1600512 -s 2 -d 3 -p ping -e 64 -c 0 -i 28 -a 0 -x {1.0 5.0 -1 ------- null}
d -t 0.1600512 -s 2 -d 3 -p ping -e 64 -c 0 -i 28 -a 0 -x {1.0 5.0 -1 ------- null}
r -t 0.160512 -s 0 -d 2 -p ping -e 64 -c 0 -i 27 -a 0 -x {0.0 4.0 -1 ------- null}
+ -t 0.160512 -s 2 -d 3 -p ping -e 64 -c 0 -i 27 -a 0 -x {0.0 4.0 -1 ------- null}
d -t 0.160512 -s 2 -d 3 -p ping -e 64 -c 0 -i 27 -a 0 -x {0.0 4.0 -1 ------- null}
+ -t 0.17 -s 0 -d 2 -p ping -e 64 -c 0 -i 31 -a 0 -x {0.0 4.0 -1 ------- null}
- -t 0.17 -s 0 -d 2 -p ping -e 64 -c 0 -i 31 -a 0 -x {0.0 4.0 -1 ------- null}
h -t 0.17 -s 0 -d 2 -p ping -e 64 -c 0 -i 31 -a 0 -x {0.0 4.0 -1 ------- null}
+ -t 0.17 -s 1 -d 2 -p ping -e 64 -c 0 -i 32 -a 0 -x {1.0 5.0 -1 ------- null}
- -t 0.17 -s 1 -d 2 -p ping -e 64 -c 0 -i 32 -a 0 -x {1.0 5.0 -1 ------- null}
h -t 0.17 -s 1 -d 2 -p ping -e 64 -c 0 -i 32 -a 0 -x {1.0 5.0 -1 ------- null}
r -t 0.1700512 -s 1 -d 2 -p ping -e 64 -c 0 -i 30 -a 0 -x {1.0 5.0 -1 ------- null}
+ -t 0.1700512 -s 2 -d 3 -p ping -e 64 -c 0 -i 30 -a 0 -x {1.0 5.0 -1 ------- null}
d -t 0.1700512 -s 2 -d 3 -p ping -e 64 -c 0 -i 30 -a 0 -x {1.0 5.0 -1 ------- null}
r -t 0.170512 -s 0 -d 2 -p ping -e 64 -c 0 -i 29 -a 0 -x {0.0 4.0 -1 ------- null}
+ -t 0.170512 -s 2 -d 3 -p ping -e 64 -c 0 -i 29 -a 0 -x {0.0 4.0 -1 ------- null}
d -t 0.170512 -s 2 -d 3 -p ping -e 64 -c 0 -i 29 -a 0 -x {0.0 4.0 -1 ------- null}
r -t 0.1725536 -s 3 -d 2 -p ping -e 64 -c 0 -i 18 -a 0 -x {5.0 1.0 -1 ------- null}
+ -t 0.1725536 -s 2 -d 1 -p ping -e 64 -c 0 -i 18 -a 0 -x {5.0 1.0 -1 ------- null}
- -t 0.1725536 -s 2 -d 1 -p ping -e 64 -c 0 -i 18 -a 0 -x {5.0 1.0 -1 ------- null}
h -t 0.1725536 -s 2 -d 1 -p ping -e 64 -c 0 -i 18 -a 0 -x {5.0 1.0 -1 ------- null}
+ -t 0.18 -s 0 -d 2 -p ping -e 64 -c 0 -i 33 -a 0 -x {0.0 4.0 -1 ------- null}
- -t 0.18 -s 0 -d 2 -p ping -e 64 -c 0 -i 33 -a 0 -x {0.0 4.0 -1 ------- null}
h -t 0.18 -s 0 -d 2 -p ping -e 64 -c 0 -i 33 -a 0 -x {0.0 4.0 -1 ------- null}
+ -t 0.18 -s 1 -d 2 -p ping -e 64 -c 0 -i 34 -a 0 -x {1.0 5.0 -1 ------- null}
- -t 0.18 -s 1 -d 2 -p ping -e 64 -c 0 -i 34 -a 0 -x {1.0 5.0 -1 ------- null}
h -t 0.18 -s 1 -d 2 -p ping -e 64 -c 0 -i 34 -a 0 -x {1.0 5.0 -1 ------- null}
r -t 0.1800512 -s 1 -d 2 -p ping -e 64 -c 0 -i 32 -a 0 -x {1.0 5.0 -1 ------- null}
+ -t 0.1800512 -s 2 -d 3 -p ping -e 64 -c 0 -i 32 -a 0 -x {1.0 5.0 -1 ------- null}
d -t 0.1800512 -s 2 -d 3 -p ping -e 64 -c 0 -i 32 -a 0 -x {1.0 5.0 -1 ------- null}
r -t 0.180512 -s 0 -d 2 -p ping -e 64 -c 0 -i 31 -a 0 -x {0.0 4.0 -1 ------- null}
+ -t 0.180512 -s 2 -d 3 -p ping -e 64 -c 0 -i 31 -a 0 -x {0.0 4.0 -1 ------- null}
d -t 0.180512 -s 2 -d 3 -p ping -e 64 -c 0 -i 31 -a 0 -x {0.0 4.0 -1 ------- null}
r -t 0.1826048 -s 2 -d 1 -p ping -e 64 -c 0 -i 18 -a 0 -x {5.0 1.0 -1 ------- null}
- -t 0.1836512 -s 2 -d 3 -p ping -e 64 -c 0 -i 2 -a 0 -x {0.0 4.0 -1 ------- null}
h -t 0.1836512 -s 2 -d 3 -p ping -e 64 -c 0 -i 2 -a 0 -x {0.0 4.0 -1 ------- null}
+ -t 0.19 -s 0 -d 2 -p ping -e 64 -c 0 -i 35 -a 0 -x {0.0 4.0 -1 ------- null}
- -t 0.19 -s 0 -d 2 -p ping -e 64 -c 0 -i 35 -a 0 -x {0.0 4.0 -1 ------- null}
h -t 0.19 -s 0 -d 2 -p ping -e 64 -c 0 -i 35 -a 0 -x {0.0 4.0 -1 ------- null}
+ -t 0.19 -s 1 -d 2 -p ping -e 64 -c 0 -i 36 -a 0 -x {1.0 5.0 -1 ------- null}
- -t 0.19 -s 1 -d 2 -p ping -e 64 -c 0 -i 36 -a 0 -x {1.0 5.0 -1 ------- null}
h -t 0.19 -s 1 -d 2 -p ping -e 64 -c 0 -i 36 -a 0 -x {1.0 5.0 -1 ------- null}
r -t 0.1900512 -s 1 -d 2 -p ping -e 64 -c 0 -i 34 -a 0 -x {1.0 5.0 -1 ------- null}
+ -t 0.1900512 -s 2 -d 3 -p ping -e 64 -c 0 -i 34 -a 0 -x {1.0 5.0 -1 ------- null}
r -t 0.190512 -s 0 -d 2 -p ping -e 64 -c 0 -i 33 -a 0 -x {0.0 4.0 -1 ------- null}
+ -t 0.190512 -s 2 -d 3 -p ping -e 64 -c 0 -i 33 -a 0 -x {0.0 4.0 -1 ------- null}
d -t 0.190512 -s 2 -d 3 -p ping -e 64 -c 0 -i 33 -a 0 -x {0.0 4.0 -1 ------- null}
r -t 0.1936512 -s 2 -d 3 -p ping -e 64 -c 0 -i 3 -a 0 -x {1.0 5.0 -1 ------- null}
+ -t 0.1936512 -s 3 -d 5 -p ping -e 64 -c 0 -i 3 -a 0 -x {1.0 5.0 -1 ------- null}
- -t 0.1936512 -s 3 -d 5 -p ping -e 64 -c 0 -i 3 -a 0 -x {1.0 5.0 -1 ------- null}
h -t 0.1936512 -s 3 -d 5 -p ping -e 64 -c 0 -i 3 -a 0 -x {1.0 5.0 -1 ------- null}
+ -t 0.2 -s 0 -d 2 -p ping -e 64 -c 0 -i 37 -a 0 -x {0.0 4.0 -1 ------- null}
- -t 0.2 -s 0 -d 2 -p ping -e 64 -c 0 -i 37 -a 0 -x {0.0 4.0 -1 ------- null}
h -t 0.2 -s 0 -d 2 -p ping -e 64 -c 0 -i 37 -a 0 -x {0.0 4.0 -1 ------- null}
+ -t 0.2 -s 1 -d 2 -p ping -e 64 -c 0 -i 38 -a 0 -x {1.0 5.0 -1 ------- null}
- -t 0.2 -s 1 -d 2 -p ping -e 64 -c 0 -i 38 -a 0 -x {1.0 5.0 -1 ------- null}
h -t 0.2 -s 1 -d 2 -p ping -e 64 -c 0 -i 38 -a 0 -x {1.0 5.0 -1 ------- null}
r -t 0.2000512 -s 1 -d 2 -p ping -e 64 -c 0 -i 36 -a 0 -x {1.0 5.0 -1 ------- null}
+ -t 0.2000512 -s 2 -d 3 -p ping -e 64 -c 0 -i 36 -a 0 -x {1.0 5.0 -1 ------- null}
d -t 0.2000512 -s 2 -d 3 -p ping -e 64 -c 0 -i 36 -a 0 -x {1.0 5.0 -1 ------- null}
r -t 0.200512 -s 0 -d 2 -p ping -e 64 -c 0 -i 35 -a 0 -x {0.0 4.0 -1 ------- null}
+ -t 0.200512 -s 2 -d 3 -p ping -e 64 -c 0 -i 35 -a 0 -x {0.0 4.0 -1 ------- null}
d -t 0.200512 -s 2 -d 3 -p ping -e 64 -c 0 -i 35 -a 0 -x {0.0 4.0 -1 ------- null}
r -t 0.2037024 -s 3 -d 5 -p ping -e 64 -c 0 -i 3 -a 0 -x {1.0 5.0 -1 ------- null}
+ -t 0.2037024 -s 5 -d 3 -p ping -e 64 -c 0 -i 39 -a 0 -x {5.0 1.0 -1 ------- null}
- -t 0.2037024 -s 5 -d 3 -p ping -e 64 -c 0 -i 39 -a 0 -x {5.0 1.0 -1 ------- null}
h -t 0.2037024 -s 5 -d 3 -p ping -e 64 -c 0 -i 39 -a 0 -x {5.0 1.0 -1 ------- null}
+ -t 0.21 -s 0 -d 2 -p ping -e 64 -c 0 -i 40 -a 0 -x {0.0 4.0 -1 ------- null}
- -t 0.21 -s 0 -d 2 -p ping -e 64 -c 0 -i 40 -a 0 -x {0.0 4.0 -1 ------- null}
h -t 0.21 -s 0 -d 2 -p ping -e 64 -c 0 -i 40 -a 0 -x {0.0 4.0 -1 ------- null}
+ -t 0.21 -s 1 -d 2 -p ping -e 64 -c 0 -i 41 -a 0 -x {1.0 5.0 -1 ------- null}
- -t 0.21 -s 1 -d 2 -p ping -e 64 -c 0 -i 41 -a 0 -x {1.0 5.0 -1 ------- null}
h -t 0.21 -s 1 -d 2 -p ping -e 64 -c 0 -i 41 -a 0 -x {1.0 5.0 -1 ------- null}
r -t 0.2100512 -s 1 -d 2 -p ping -e 64 -c 0 -i 38 -a 0 -x {1.0 5.0 -1 ------- null}
+ -t 0.2100512 -s 2 -d 3 -p ping -e 64 -c 0 -i 38 -a 0 -x {1.0 5.0 -1 ------- null}
d -t 0.2100512 -s 2 -d 3 -p ping -e 64 -c 0 -i 38 -a 0 -x {1.0 5.0 -1 ------- null}
r -t 0.210512 -s 0 -d 2 -p ping -e 64 -c 0 -i 37 -a 0 -x {0.0 4.0 -1 ------- null}
+ -t 0.210512 -s 2 -d 3 -p ping -e 64 -c 0 -i 37 -a 0 -x {0.0 4.0 -1 ------- null}
d -t 0.210512 -s 2 -d 3 -p ping -e 64 -c 0 -i 37 -a 0 -x {0.0 4.0 -1 ------- null}
r -t 0.2137536 -s 5 -d 3 -p ping -e 64 -c 0 -i 39 -a 0 -x {5.0 1.0 -1 ------- null}
+ -t 0.2137536 -s 3 -d 2 -p ping -e 64 -c 0 -i 39 -a 0 -x {5.0 1.0 -1 ------- null}
- -t 0.2137536 -s 3 -d 2 -p ping -e 64 -c 0 -i 39 -a 0 -x {5.0 1.0 -1 ------- null}
h -t 0.2137536 -s 3 -d 2 -p ping -e 64 -c 0 -i 39 -a 0 -x {5.0 1.0 -1 ------- null}
+ -t 0.22 -s 0 -d 2 -p ping -e 64 -c 0 -i 42 -a 0 -x {0.0 4.0 -1 ------- null}
- -t 0.22 -s 0 -d 2 -p ping -e 64 -c 0 -i 42 -a 0 -x {0.0 4.0 -1 ------- null}
h -t 0.22 -s 0 -d 2 -p ping -e 64 -c 0 -i 42 -a 0 -x {0.0 4.0 -1 ------- null}
+ -t 0.22 -s 1 -d 2 -p ping -e 64 -c 0 -i 43 -a 0 -x {1.0 5.0 -1 ------- null}
- -t 0.22 -s 1 -d 2 -p ping -e 64 -c 0 -i 43 -a 0 -x {1.0 5.0 -1 ------- null}
h -t 0.22 -s 1 -d 2 -p ping -e 64 -c 0 -i 43 -a 0 -x {1.0 5.0 -1 ------- null}
r -t 0.2200512 -s 1 -d 2 -p ping -e 64 -c 0 -i 41 -a 0 -x {1.0 5.0 -1 ------- null}
+ -t 0.2200512 -s 2 -d 3 -p ping -e 64 -c 0 -i 41 -a 0 -x {1.0 5.0 -1 ------- null}
d -t 0.2200512 -s 2 -d 3 -p ping -e 64 -c 0 -i 41 -a 0 -x {1.0 5.0 -1 ------- null}
r -t 0.220512 -s 0 -d 2 -p ping -e 64 -c 0 -i 40 -a 0 -x {0.0 4.0 -1 ------- null}
+ -t 0.220512 -s 2 -d 3 -p ping -e 64 -c 0 -i 40 -a 0 -x {0.0 4.0 -1 ------- null}
d -t 0.220512 -s 2 -d 3 -p ping -e 64 -c 0 -i 40 -a 0 -x {0.0 4.0 -1 ------- null}
+ -t 0.23 -s 0 -d 2 -p ping -e 64 -c 0 -i 44 -a 0 -x {0.0 4.0 -1 ------- null}
- -t 0.23 -s 0 -d 2 -p ping -e 64 -c 0 -i 44 -a 0 -x {0.0 4.0 -1 ------- null}
h -t 0.23 -s 0 -d 2 -p ping -e 64 -c 0 -i 44 -a 0 -x {0.0 4.0 -1 ------- null}
+ -t 0.23 -s 1 -d 2 -p ping -e 64 -c 0 -i 45 -a 0 -x {1.0 5.0 -1 ------- null}
- -t 0.23 -s 1 -d 2 -p ping -e 64 -c 0 -i 45 -a 0 -x {1.0 5.0 -1 ------- null}
h -t 0.23 -s 1 -d 2 -p ping -e 64 -c 0 -i 45 -a 0 -x {1.0 5.0 -1 ------- null}
r -t 0.2300512 -s 1 -d 2 -p ping -e 64 -c 0 -i 43 -a 0 -x {1.0 5.0 -1 ------- null}
+ -t 0.2300512 -s 2 -d 3 -p ping -e 64 -c 0 -i 43 -a 0 -x {1.0 5.0 -1 ------- null}
d -t 0.2300512 -s 2 -d 3 -p ping -e 64 -c 0 -i 43 -a 0 -x {1.0 5.0 -1 ------- null}
r -t 0.230512 -s 0 -d 2 -p ping -e 64 -c 0 -i 42 -a 0 -x {0.0 4.0 -1 ------- null}
+ -t 0.230512 -s 2 -d 3 -p ping -e 64 -c 0 -i 42 -a 0 -x {0.0 4.0 -1 ------- null}
d -t 0.230512 -s 2 -d 3 -p ping -e 64 -c 0 -i 42 -a 0 -x {0.0 4.0 -1 ------- null}
- -t 0.2348512 -s 2 -d 3 -p ping -e 64 -c 0 -i 5 -a 0 -x {1.0 5.0 -1 ------- null}
h -t 0.2348512 -s 2 -d 3 -p ping -e 64 -c 0 -i 5 -a 0 -x {1.0 5.0 -1 ------- null}
+ -t 0.24 -s 0 -d 2 -p ping -e 64 -c 0 -i 46 -a 0 -x {0.0 4.0 -1 ------- null}
- -t 0.24 -s 0 -d 2 -p ping -e 64 -c 0 -i 46 -a 0 -x {0.0 4.0 -1 ------- null}
h -t 0.24 -s 0 -d 2 -p ping -e 64 -c 0 -i 46 -a 0 -x {0.0 4.0 -1 ------- null}
+ -t 0.24 -s 1 -d 2 -p ping -e 64 -c 0 -i 47 -a 0 -x {1.0 5.0 -1 ------- null}
- -t 0.24 -s 1 -d 2 -p ping -e 64 -c 0 -i 47 -a 0 -x {1.0 5.0 -1 ------- null}
h -t 0.24 -s 1 -d 2 -p ping -e 64 -c 0 -i 47 -a 0 -x {1.0 5.0 -1 ------- null}
r -t 0.2400512 -s 1 -d 2 -p ping -e 64 -c 0 -i 45 -a 0 -x {1.0 5.0 -1 ------- null}
+ -t 0.2400512 -s 2 -d 3 -p ping -e 64 -c 0 -i 45 -a 0 -x {1.0 5.0 -1 ------- null}
r -t 0.240512 -s 0 -d 2 -p ping -e 64 -c 0 -i 44 -a 0 -x {0.0 4.0 -1 ------- null}
+ -t 0.240512 -s 2 -d 3 -p ping -e 64 -c 0 -i 44 -a 0 -x {0.0 4.0 -1 ------- null}
d -t 0.240512 -s 2 -d 3 -p ping -e 64 -c 0 -i 44 -a 0 -x {0.0 4.0 -1 ------- null}
r -t 0.2448512 -s 2 -d 3 -p ping -e 64 -c 0 -i 2 -a 0 -x {0.0 4.0 -1 ------- null}
+ -t 0.2448512 -s 3 -d 4 -p ping -e 64 -c 0 -i 2 -a 0 -x {0.0 4.0 -1 ------- null}
d -t 0.2448512 -s 3 -d 4 -p ping -e 64 -c 0 -i 2 -a 0 -x {0.0 4.0 -1 ------- null}
+ -t 0.25 -s 0 -d 2 -p ping -e 64 -c 0 -i 48 -a 0 -x {0.0 4.0 -1 ------- null}
- -t 0.25 -s 0 -d 2 -p ping -e 64 -c 0 -i 48 -a 0 -x {0.0 4.0 -1 ------- null}
h -t 0.25 -s 0 -d 2 -p ping -e 64 -c 0 -i 48 -a 0 -x {0.0 4.0 -1 ------- null}
+ -t 0.25 -s 1 -d 2 -p ping -e 64 -c 0 -i 49 -a 0 -x {1.0 5.0 -1 ------- null}
- -t 0.25 -s 1 -d 2 -p ping -e 64 -c 0 -i 49 -a 0 -x {1.0 5.0 -1 ------- null}
h -t 0.25 -s 1 -d 2 -p ping -e 64 -c 0 -i 49 -a 0 -x {1.0 5.0 -1 ------- null}
r -t 0.2500512 -s 1 -d 2 -p ping -e 64 -c 0 -i 47 -a 0 -x {1.0 5.0 -1 ------- null}
+ -t 0.2500512 -s 2 -d 3 -p ping -e 64 -c 0 -i 47 -a 0 -x {1.0 5.0 -1 ------- null}
d -t 0.2500512 -s 2 -d 3 -p ping -e 64 -c 0 -i 47 -a 0 -x {1.0 5.0 -1 ------- null}
r -t 0.250512 -s 0 -d 2 -p ping -e 64 -c 0 -i 46 -a 0 -x {0.0 4.0 -1 ------- null}
+ -t 0.250512 -s 2 -d 3 -p ping -e 64 -c 0 -i 46 -a 0 -x {0.0 4.0 -1 ------- null}
d -t 0.250512 -s 2 -d 3 -p ping -e 64 -c 0 -i 46 -a 0 -x {0.0 4.0 -1 ------- null}
+ -t 0.26 -s 0 -d 2 -p ping -e 64 -c 0 -i 50 -a 0 -x {0.0 4.0 -1 ------- null}
- -t 0.26 -s 0 -d 2 -p ping -e 64 -c 0 -i 50 -a 0 -x {0.0 4.0 -1 ------- null}
h -t 0.26 -s 0 -d 2 -p ping -e 64 -c 0 -i 50 -a 0 -x {0.0 4.0 -1 ------- null}
+ -t 0.26 -s 1 -d 2 -p ping -e 64 -c 0 -i 51 -a 0 -x {1.0 5.0 -1 ------- null}
- -t 0.26 -s 1 -d 2 -p ping -e 64 -c 0 -i 51 -a 0 -x {1.0 5.0 -1 ------- null}
h -t 0.26 -s 1 -d 2 -p ping -e 64 -c 0 -i 51 -a 0 -x {1.0 5.0 -1 ------- null}
r -t 0.2600512 -s 1 -d 2 -p ping -e 64 -c 0 -i 49 -a 0 -x {1.0 5.0 -1 ------- null}
+ -t 0.2600512 -s 2 -d 3 -p ping -e 64 -c 0 -i 49 -a 0 -x {1.0 5.0 -1 ------- null}
d -t 0.2600512 -s 2 -d 3 -p ping -e 64 -c 0 -i 49 -a 0 -x {1.0 5.0 -1 ------- null}
r -t 0.260512 -s 0 -d 2 -p ping -e 64 -c 0 -i 48 -a 0 -x {0.0 4.0 -1 ------- null}
+ -t 0.260512 -s 2 -d 3 -p ping -e 64 -c 0 -i 48 -a 0 -x {0.0 4.0 -1 ------- null}
d -t 0.260512 -s 2 -d 3 -p ping -e 64 -c 0 -i 48 -a 0 -x {0.0 4.0 -1 ------- null}
+ -t 0.27 -s 0 -d 2 -p ping -e 64 -c 0 -i 52 -a 0 -x {0.0 4.0 -1 ------- null}
- -t 0.27 -s 0 -d 2 -p ping -e 64 -c 0 -i 52 -a 0 -x {0.0 4.0 -1 ------- null}
h -t 0.27 -s 0 -d 2 -p ping -e 64 -c 0 -i 52 -a 0 -x {0.0 4.0 -1 ------- null}
+ -t 0.27 -s 1 -d 2 -p ping -e 64 -c 0 -i 53 -a 0 -x {1.0 5.0 -1 ------- null}
- -t 0.27 -s 1 -d 2 -p ping -e 64 -c 0 -i 53 -a 0 -x {1.0 5.0 -1 ------- null}
h -t 0.27 -s 1 -d 2 -p ping -e 64 -c 0 -i 53 -a 0 -x {1.0 5.0 -1 ------- null}
r -t 0.2700512 -s 1 -d 2 -p ping -e 64 -c 0 -i 51 -a 0 -x {1.0 5.0 -1 ------- null}
+ -t 0.2700512 -s 2 -d 3 -p ping -e 64 -c 0 -i 51 -a 0 -x {1.0 5.0 -1 ------- null}
d -t 0.2700512 -s 2 -d 3 -p ping -e 64 -c 0 -i 51 -a 0 -x {1.0 5.0 -1 ------- null}
r -t 0.270512 -s 0 -d 2 -p ping -e 64 -c 0 -i 50 -a 0 -x {0.0 4.0 -1 ------- null}
+ -t 0.270512 -s 2 -d 3 -p ping -e 64 -c 0 -i 50 -a 0 -x {0.0 4.0 -1 ------- null}
d -t 0.270512 -s 2 -d 3 -p ping -e 64 -c 0 -i 50 -a 0 -x {0.0 4.0 -1 ------- null}
r -t 0.2749536 -s 3 -d 2 -p ping -e 64 -c 0 -i 39 -a 0 -x {5.0 1.0 -1 ------- null}
+ -t 0.2749536 -s 2 -d 1 -p ping -e 64 -c 0 -i 39 -a 0 -x {5.0 1.0 -1 ------- null}
- -t 0.2749536 -s 2 -d 1 -p ping -e 64 -c 0 -i 39 -a 0 -x {5.0 1.0 -1 ------- null}
h -t 0.2749536 -s 2 -d 1 -p ping -e 64 -c 0 -i 39 -a 0 -x {5.0 1.0 -1 ------- null}
+ -t 0.28 -s 0 -d 2 -p ping -e 64 -c 0 -i 54 -a 0 -x {0.0 4.0 -1 ------- null}
- -t 0.28 -s 0 -d 2 -p ping -e 64 -c 0 -i 54 -a 0 -x {0.0 4.0 -1 ------- null}
h -t 0.28 -s 0 -d 2 -p ping -e 64 -c 0 -i 54 -a 0 -x {0.0 4.0 -1 ------- null}
+ -t 0.28 -s 1 -d 2 -p ping -e 64 -c 0 -i 55 -a 0 -x {1.0 5.0 -1 ------- null}
- -t 0.28 -s 1 -d 2 -p ping -e 64 -c 0 -i 55 -a 0 -x {1.0 5.0 -1 ------- null}
h -t 0.28 -s 1 -d 2 -p ping -e 64 -c 0 -i 55 -a 0 -x {1.0 5.0 -1 ------- null}
r -t 0.2800512 -s 1 -d 2 -p ping -e 64 -c 0 -i 53 -a 0 -x {1.0 5.0 -1 ------- null}
+ -t 0.2800512 -s 2 -d 3 -p ping -e 64 -c 0 -i 53 -a 0 -x {1.0 5.0 -1 ------- null}
d -t 0.2800512 -s 2 -d 3 -p ping -e 64 -c 0 -i 53 -a 0 -x {1.0 5.0 -1 ------- null}
r -t 0.280512 -s 0 -d 2 -p ping -e 64 -c 0 -i 52 -a 0 -x {0.0 4.0 -1 ------- null}
+ -t 0.280512 -s 2 -d 3 -p ping -e 64 -c 0 -i 52 -a 0 -x {0.0 4.0 -1 ------- null}
d -t 0.280512 -s 2 -d 3 -p ping -e 64 -c 0 -i 52 -a 0 -x {0.0 4.0 -1 ------- null}
r -t 0.2850048 -s 2 -d 1 -p ping -e 64 -c 0 -i 39 -a 0 -x {5.0 1.0 -1 ------- null}
- -t 0.2860512 -s 2 -d 3 -p ping -e 64 -c 0 -i 13 -a 0 -x {1.0 5.0 -1 ------- null}